V -t * -v 1.0a5 -a 0
A -t * -n 1 -p 0 -o 0x7fffffff -c 30 -a 1
A -t * -h 1 -m 1073741823 -s 0
c -t * -i 1 -n Red
c -t * -i 2 -n Green
c -t * -i 3 -n blue
n -t * -a 4 -s 4 -S UP -v circle -c black -i black
n -t * -a 0 -s 0 -S UP -v circle -c black -i black
n -t * -a 1 -s 1 -S UP -v circle -c black -i black
n -t * -a 2 -s 2 -S UP -v circle -c black -i black
n -t * -a 3 -s 3 -S UP -v circle -c black -i black
l -t * -s 0 -d 3 -S UP -r 2000000 -D 0.0080000000000000002 -c black
l -t * -s 1 -d 3 -S UP -r 2000000 -D 0.0070000000000000001 -c black
l -t * -s 2 -d 3 -S UP -r 2000000 -D 0.010999999999999999 -c black
l -t * -s 3 -d 4 -S UP -r 2000000 -D 0.0050000000000000001 -c black
+ -t 2 -s 0 -d 3 -p cbr -e 210 -c 1 -i 0 -a 1 -x {0.0 4.0 0 ------- null}
- -t 2 -s 0 -d 3 -p cbr -e 210 -c 1 -i 0 -a 1 -x {0.0 4.0 0 ------- null}
h -t 2 -s 0 -d 3 -p cbr -e 210 -c 1 -i 0 -a 1 -x {0.0 4.0 -1 ------- null}
+ -t 2 -s 1 -d 3 -p cbr -e 210 -c 2 -i 1 -a 2 -x {1.0 4.1 0 ------- null}
- -t 2 -s 1 -d 3 -p cbr -e 210 -c 2 -i 1 -a 2 -x {1.0 4.1 0 ------- null}
h -t 2 -s 1 -d 3 -p cbr -e 210 -c 2 -i 1 -a 2 -x {1.0 4.1 -1 ------- null}
+ -t 2 -s 2 -d 3 -p cbr -e 210 -c 3 -i 2 -a 3 -x {2.0 4.2 0 ------- null}
- -t 2 -s 2 -d 3 -p cbr -e 210 -c 3 -i 2 -a 3 -x {2.0 4.2 0 ------- null}
h -t 2 -s 2 -d 3 -p cbr -e 210 -c 3 -i 2 -a 3 -x {2.0 4.2 -1 ------- null}
+ -t 2.00375 -s 0 -d 3 -p cbr -e 210 -c 1 -i 3 -a 1 -x {0.0 4.0 1 ------- null}
- -t 2.00375 -s 0 -d 3 -p cbr -e 210 -c 1 -i 3 -a 1 -x {0.0 4.0 1 ------- null}
h -t 2.00375 -s 0 -d 3 -p cbr -e 210 -c 1 -i 3 -a 1 -x {0.0 4.0 -1 ------- null}
+ -t 2.00375 -s 1 -d 3 -p cbr -e 210 -c 2 -i 4 -a 2 -x {1.0 4.1 1 ------- null}
- -t 2.00375 -s 1 -d 3 -p cbr -e 210 -c 2 -i 4 -a 2 -x {1.0 4.1 1 ------- null}
h -t 2.00375 -s 1 -d 3 -p cbr -e 210 -c 2 -i 4 -a 2 -x {1.0 4.1 -1 ------- null}
+ -t 2.00375 -s 2 -d 3 -p cbr -e 210 -c 3 -i 5 -a 3 -x {2.0 4.2 1 ------- null}
- -t 2.00375 -s 2 -d 3 -p cbr -e 210 -c 3 -i 5 -a 3 -x {2.0 4.2 1 ------- null}
h -t 2.00375 -s 2 -d 3 -p cbr -e 210 -c 3 -i 5 -a 3 -x {2.0 4.2 -1 ------- null}
+ -t 2.0075 -s 0 -d 3 -p cbr -e 210 -c 1 -i 6 -a 1 -x {0.0 4.0 2 ------- null}
- -t 2.0075 -s 0 -d 3 -p cbr -e 210 -c 1 -i 6 -a 1 -x {0.0 4.0 2 ------- null}
h -t 2.0075 -s 0 -d 3 -p cbr -e 210 -c 1 -i 6 -a 1 -x {0.0 4.0 -1 ------- null}
+ -t 2.0075 -s 1 -d 3 -p cbr -e 210 -c 2 -i 7 -a 2 -x {1.0 4.1 2 ------- null}
- -t 2.0075 -s 1 -d 3 -p cbr -e 210 -c 2 -i 7 -a 2 -x {1.0 4.1 2 ------- null}
h -t 2.0075 -s 1 -d 3 -p cbr -e 210 -c 2 -i 7 -a 2 -x {1.0 4.1 -1 ------- null}
+ -t 2.0075 -s 2 -d 3 -p cbr -e 210 -c 3 -i 8 -a 3 -x {2.0 4.2 2 ------- null}
- -t 2.0075 -s 2 -d 3 -p cbr -e 210 -c 3 -i 8 -a 3 -x {2.0 4.2 2 ------- null}
h -t 2.0075 -s 2 -d 3 -p cbr -e 210 -c 3 -i 8 -a 3 -x {2.0 4.2 -1 ------- null}
r -t 2.00784 -s 1 -d 3 -p cbr -e 210 -c 2 -i 1 -a 2 -x {1.0 4.1 0 ------- null}
+ -t 2.00784 -s 3 -d 4 -p cbr -e 210 -c 2 -i 1 -a 2 -x {1.0 4.1 0 ------- null}
- -t 2.00784 -s 3 -d 4 -p cbr -e 210 -c 2 -i 1 -a 2 -x {1.0 4.1 0 ------- null}
h -t 2.00784 -s 3 -d 4 -p cbr -e 210 -c 2 -i 1 -a 2 -x {1.0 4.1 -1 ------- null}
r -t 2.00884 -s 0 -d 3 -p cbr -e 210 -c 1 -i 0 -a 1 -x {0.0 4.0 0 ------- null}
+ -t 2.00884 -s 3 -d 4 -p cbr -e 210 -c 1 -i 0 -a 1 -x {0.0 4.0 0 ------- null}
- -t 2.00884 -s 3 -d 4 -p cbr -e 210 -c 1 -i 0 -a 1 -x {0.0 4.0 0 ------- null}
h -t 2.00884 -s 3 -d 4 -p cbr -e 210 -c 1 -i 0 -a 1 -x {0.0 4.0 -1 ------- null}
+ -t 2.01125 -s 0 -d 3 -p cbr -e 210 -c 1 -i 9 -a 1 -x {0.0 4.0 3 ------- null}
- -t 2.01125 -s 0 -d 3 -p cbr -e 210 -c 1 -i 9 -a 1 -x {0.0 4.0 3 ------- null}
h -t 2.01125 -s 0 -d 3 -p cbr -e 210 -c 1 -i 9 -a 1 -x {0.0 4.0 -1 ------- null}
+ -t 2.01125 -s 1 -d 3 -p cbr -e 210 -c 2 -i 10 -a 2 -x {1.0 4.1 3 ------- null}
- -t 2.01125 -s 1 -d 3 -p cbr -e 210 -c 2 -i 10 -a 2 -x {1.0 4.1 3 ------- null}
h -t 2.01125 -s 1 -d 3 -p cbr -e 210 -c 2 -i 10 -a 2 -x {1.0 4.1 -1 ------- null}
+ -t 2.01125 -s 2 -d 3 -p cbr -e 210 -c 3 -i 11 -a 3 -x {2.0 4.2 3 ------- null}
- -t 2.01125 -s 2 -d 3 -p cbr -e 210 -c 3 -i 11 -a 3 -x {2.0 4.2 3 ------- null}
h -t 2.01125 -s 2 -d 3 -p cbr -e 210 -c 3 -i 11 -a 3 -x {2.0 4.2 -1 ------- null}
r -t 2.01159 -s 1 -d 3 -p cbr -e 210 -c 2 -i 4 -a 2 -x {1.0 4.1 1 ------- null}
+ -t 2.01159 -s 3 -d 4 -p cbr -e 210 -c 2 -i 4 -a 2 -x {1.0 4.1 1 ------- null}
- -t 2.01159 -s 3 -d 4 -p cbr -e 210 -c 2 -i 4 -a 2 -x {1.0 4.1 1 ------- null}
h -t 2.01159 -s 3 -d 4 -p cbr -e 210 -c 2 -i 4 -a 2 -x {1.0 4.1 -1 ------- null}
r -t 2.01184 -s 2 -d 3 -p cbr -e 210 -c 3 -i 2 -a 3 -x {2.0 4.2 0 ------- null}
+ -t 2.01184 -s 3 -d 4 -p cbr -e 210 -c 3 -i 2 -a 3 -x {2.0 4.2 0 ------- null}
- -t 2.01243 -s 3 -d 4 -p cbr -e 210 -c 3 -i 2 -a 3 -x {2.0 4.2 0 ------- null}
h -t 2.01243 -s 3 -d 4 -p cbr -e 210 -c 3 -i 2 -a 3 -x {2.0 4.2 -1 ------- null}
r -t 2.01259 -s 0 -d 3 -p cbr -e 210 -c 1 -i 3 -a 1 -x {0.0 4.0 1 ------- null}
+ -t 2.01259 -s 3 -d 4 -p cbr -e 210 -c 1 -i 3 -a 1 -x {0.0 4.0 1 ------- null}
- -t 2.01327 -s 3 -d 4 -p cbr -e 210 -c 1 -i 3 -a 1 -x {0.0 4.0 1 ------- null}
h -t 2.01327 -s 3 -d 4 -p cbr -e 210 -c 1 -i 3 -a 1 -x {0.0 4.0 -1 ------- null}
r -t 2.01368 -s 3 -d 4 -p cbr -e 210 -c 2 -i 1 -a 2 -x {1.0 4.1 0 ------- null}
r -t 2.01468 -s 3 -d 4 -p cbr -e 210 -c 1 -i 0 -a 1 -x {0.0 4.0 0 ------- null}
+ -t 2.015 -s 0 -d 3 -p cbr -e 210 -c 1 -i 12 -a 1 -x {0.0 4.0 4 ------- null}
- -t 2.015 -s 0 -d 3 -p cbr -e 210 -c 1 -i 12 -a 1 -x {0.0 4.0 4 ------- null}
h -t 2.015 -s 0 -d 3 -p cbr -e 210 -c 1 -i 12 -a 1 -x {0.0 4.0 -1 ------- null}
+ -t 2.015 -s 1 -d 3 -p cbr -e 210 -c 2 -i 13 -a 2 -x {1.0 4.1 4 ------- null}
- -t 2.015 -s 1 -d 3 -p cbr -e 210 -c 2 -i 13 -a 2 -x {1.0 4.1 4 ------- null}
h -t 2.015 -s 1 -d 3 -p cbr -e 210 -c 2 -i 13 -a 2 -x {1.0 4.1 -1 ------- null}
+ -t 2.015 -s 2 -d 3 -p cbr -e 210 -c 3 -i 14 -a 3 -x {2.0 4.2 4 ------- null}
- -t 2.015 -s 2 -d 3 -p cbr -e 210 -c 3 -i 14 -a 3 -x {2.0 4.2 4 ------- null}
h -t 2.015 -s 2 -d 3 -p cbr -e 210 -c 3 -i 14 -a 3 -x {2.0 4.2 -1 ------- null}
r -t 2.01534 -s 1 -d 3 -p cbr -e 210 -c 2 -i 7 -a 2 -x {1.0 4.1 2 ------- null}
+ -t 2.01534 -s 3 -d 4 -p cbr -e 210 -c 2 -i 7 -a 2 -x {1.0 4.1 2 ------- null}
- -t 2.01534 -s 3 -d 4 -p cbr -e 210 -c 2 -i 7 -a 2 -x {1.0 4.1 2 ------- null}
h -t 2.01534 -s 3 -d 4 -p cbr -e 210 -c 2 -i 7 -a 2 -x {1.0 4.1 -1 ------- null}
r -t 2.01559 -s 2 -d 3 -p cbr -e 210 -c 3 -i 5 -a 3 -x {2.0 4.2 1 ------- null}
+ -t 2.01559 -s 3 -d 4 -p cbr -e 210 -c 3 -i 5 -a 3 -x {2.0 4.2 1 ------- null}
- -t 2.01618 -s 3 -d 4 -p cbr -e 210 -c 3 -i 5 -a 3 -x {2.0 4.2 1 ------- null}
h -t 2.01618 -s 3 -d 4 -p cbr -e 210 -c 3 -i 5 -a 3 -x {2.0 4.2 -1 ------- null}
r -t 2.01634 -s 0 -d 3 -p cbr -e 210 -c 1 -i 6 -a 1 -x {0.0 4.0 2 ------- null}
+ -t 2.01634 -s 3 -d 4 -p cbr -e 210 -c 1 -i 6 -a 1 -x {0.0 4.0 2 ------- null}
- -t 2.01702 -s 3 -d 4 -p cbr -e 210 -c 1 -i 6 -a 1 -x {0.0 4.0 2 ------- null}
h -t 2.01702 -s 3 -d 4 -p cbr -e 210 -c 1 -i 6 -a 1 -x {0.0 4.0 -1 ------- null}
r -t 2.01743 -s 3 -d 4 -p cbr -e 210 -c 2 -i 4 -a 2 -x {1.0 4.1 1 ------- null}
r -t 2.01827 -s 3 -d 4 -p cbr -e 210 -c 3 -i 2 -a 3 -x {2.0 4.2 0 ------- null}
+ -t 2.01875 -s 0 -d 3 -p cbr -e 210 -c 1 -i 15 -a 1 -x {0.0 4.0 5 ------- null}
- -t 2.01875 -s 0 -d 3 -p cbr -e 210 -c 1 -i 15 -a 1 -x {0.0 4.0 5 ------- null}
h -t 2.01875 -s 0 -d 3 -p cbr -e 210 -c 1 -i 15 -a 1 -x {0.0 4.0 -1 ------- null}
+ -t 2.01875 -s 1 -d 3 -p cbr -e 210 -c 2 -i 16 -a 2 -x {1.0 4.1 5 ------- null}
- -t 2.01875 -s 1 -d 3 -p cbr -e 210 -c 2 -i 16 -a 2 -x {1.0 4.1 5 ------- null}
h -t 2.01875 -s 1 -d 3 -p cbr -e 210 -c 2 -i 16 -a 2 -x {1.0 4.1 -1 ------- null}
+ -t 2.01875 -s 2 -d 3 -p cbr -e 210 -c 3 -i 17 -a 3 -x {2.0 4.2 5 ------- null}
- -t 2.01875 -s 2 -d 3 -p cbr -e 210 -c 3 -i 17 -a 3 -x {2.0 4.2 5 ------- null}
h -t 2.01875 -s 2 -d 3 -p cbr -e 210 -c 3 -i 17 -a 3 -x {2.0 4.2 -1 ------- null}
r -t 2.01909 -s 1 -d 3 -p cbr -e 210 -c 2 -i 10 -a 2 -x {1.0 4.1 3 ------- null}
+ -t 2.01909 -s 3 -d 4 -p cbr -e 210 -c 2 -i 10 -a 2 -x {1.0 4.1 3 ------- null}
- -t 2.01909 -s 3 -d 4 -p cbr -e 210 -c 2 -i 10 -a 2 -x {1.0 4.1 3 ------- null}
h -t 2.01909 -s 3 -d 4 -p cbr -e 210 -c 2 -i 10 -a 2 -x {1.0 4.1 -1 ------- null}
r -t 2.01911 -s 3 -d 4 -p cbr -e 210 -c 1 -i 3 -a 1 -x {0.0 4.0 1 ------- null}
r -t 2.01934 -s 2 -d 3 -p cbr -e 210 -c 3 -i 8 -a 3 -x {2.0 4.2 2 ------- null}
+ -t 2.01934 -s 3 -d 4 -p cbr -e 210 -c 3 -i 8 -a 3 -x {2.0 4.2 2 ------- null}
- -t 2.01993 -s 3 -d 4 -p cbr -e 210 -c 3 -i 8 -a 3 -x {2.0 4.2 2 ------- null}
h -t 2.01993 -s 3 -d 4 -p cbr -e 210 -c 3 -i 8 -a 3 -x {2.0 4.2 -1 ------- null}
r -t 2.02009 -s 0 -d 3 -p cbr -e 210 -c 1 -i 9 -a 1 -x {0.0 4.0 3 ------- null}
+ -t 2.02009 -s 3 -d 4 -p cbr -e 210 -c 1 -i 9 -a 1 -x {0.0 4.0 3 ------- null}
- -t 2.02077 -s 3 -d 4 -p cbr -e 210 -c 1 -i 9 -a 1 -x {0.0 4.0 3 ------- null}
h -t 2.02077 -s 3 -d 4 -p cbr -e 210 -c 1 -i 9 -a 1 -x {0.0 4.0 -1 ------- null}
r -t 2.02118 -s 3 -d 4 -p cbr -e 210 -c 2 -i 7 -a 2 -x {1.0 4.1 2 ------- null}
r -t 2.02202 -s 3 -d 4 -p cbr -e 210 -c 3 -i 5 -a 3 -x {2.0 4.2 1 ------- null}
+ -t 2.0225 -s 0 -d 3 -p cbr -e 210 -c 1 -i 18 -a 1 -x {0.0 4.0 6 ------- null}
- -t 2.0225 -s 0 -d 3 -p cbr -e 210 -c 1 -i 18 -a 1 -x {0.0 4.0 6 ------- null}
h -t 2.0225 -s 0 -d 3 -p cbr -e 210 -c 1 -i 18 -a 1 -x {0.0 4.0 -1 ------- null}
+ -t 2.0225 -s 1 -d 3 -p cbr -e 210 -c 2 -i 19 -a 2 -x {1.0 4.1 6 ------- null}
- -t 2.0225 -s 1 -d 3 -p cbr -e 210 -c 2 -i 19 -a 2 -x {1.0 4.1 6 ------- null}
h -t 2.0225 -s 1 -d 3 -p cbr -e 210 -c 2 -i 19 -a 2 -x {1.0 4.1 -1 ------- null}
+ -t 2.0225 -s 2 -d 3 -p cbr -e 210 -c 3 -i 20 -a 3 -x {2.0 4.2 6 ------- null}
- -t 2.0225 -s 2 -d 3 -p cbr -e 210 -c 3 -i 20 -a 3 -x {2.0 4.2 6 ------- null}
h -t 2.0225 -s 2 -d 3 -p cbr -e 210 -c 3 -i 20 -a 3 -x {2.0 4.2 -1 ------- null}
r -t 2.02284 -s 1 -d 3 -p cbr -e 210 -c 2 -i 13 -a 2 -x {1.0 4.1 4 ------- null}
+ -t 2.02284 -s 3 -d 4 -p cbr -e 210 -c 2 -i 13 -a 2 -x {1.0 4.1 4 ------- null}
- -t 2.02284 -s 3 -d 4 -p cbr -e 210 -c 2 -i 13 -a 2 -x {1.0 4.1 4 ------- null}
h -t 2.02284 -s 3 -d 4 -p cbr -e 210 -c 2 -i 13 -a 2 -x {1.0 4.1 -1 ------- null}
r -t 2.02286 -s 3 -d 4 -p cbr -e 210 -c 1 -i 6 -a 1 -x {0.0 4.0 2 ------- null}
r -t 2.02309 -s 2 -d 3 -p cbr -e 210 -c 3 -i 11 -a 3 -x {2.0 4.2 3 ------- null}
+ -t 2.02309 -s 3 -d 4 -p cbr -e 210 -c 3 -i 11 -a 3 -x {2.0 4.2 3 ------- null}
- -t 2.02368 -s 3 -d 4 -p cbr -e 210 -c 3 -i 11 -a 3 -x {2.0 4.2 3 ------- null}
h -t 2.02368 -s 3 -d 4 -p cbr -e 210 -c 3 -i 11 -a 3 -x {2.0 4.2 -1 ------- null}
r -t 2.02384 -s 0 -d 3 -p cbr -e 210 -c 1 -i 12 -a 1 -x {0.0 4.0 4 ------- null}
+ -t 2.02384 -s 3 -d 4 -p cbr -e 210 -c 1 -i 12 -a 1 -x {0.0 4.0 4 ------- null}
- -t 2.02452 -s 3 -d 4 -p cbr -e 210 -c 1 -i 12 -a 1 -x {0.0 4.0 4 ------- null}
h -t 2.02452 -s 3 -d 4 -p cbr -e 210 -c 1 -i 12 -a 1 -x {0.0 4.0 -1 ------- null}
r -t 2.02493 -s 3 -d 4 -p cbr -e 210 -c 2 -i 10 -a 2 -x {1.0 4.1 3 ------- null}
r -t 2.02577 -s 3 -d 4 -p cbr -e 210 -c 3 -i 8 -a 3 -x {2.0 4.2 2 ------- null}
+ -t 2.02625 -s 0 -d 3 -p cbr -e 210 -c 1 -i 21 -a 1 -x {0.0 4.0 7 ------- null}
- -t 2.02625 -s 0 -d 3 -p cbr -e 210 -c 1 -i 21 -a 1 -x {0.0 4.0 7 ------- null}
h -t 2.02625 -s 0 -d 3 -p cbr -e 210 -c 1 -i 21 -a 1 -x {0.0 4.0 -1 ------- null}
+ -t 2.02625 -s 1 -d 3 -p cbr -e 210 -c 2 -i 22 -a 2 -x {1.0 4.1 7 ------- null}
- -t 2.02625 -s 1 -d 3 -p cbr -e 210 -c 2 -i 22 -a 2 -x {1.0 4.1 7 ------- null}
h -t 2.02625 -s 1 -d 3 -p cbr -e 210 -c 2 -i 22 -a 2 -x {1.0 4.1 -1 ------- null}
+ -t 2.02625 -s 2 -d 3 -p cbr -e 210 -c 3 -i 23 -a 3 -x {2.0 4.2 7 ------- null}
- -t 2.02625 -s 2 -d 3 -p cbr -e 210 -c 3 -i 23 -a 3 -x {2.0 4.2 7 ------- null}
h -t 2.02625 -s 2 -d 3 -p cbr -e 210 -c 3 -i 23 -a 3 -x {2.0 4.2 -1 ------- null}
r -t 2.02659 -s 1 -d 3 -p cbr -e 210 -c 2 -i 16 -a 2 -x {1.0 4.1 5 ------- null}
+ -t 2.02659 -s 3 -d 4 -p cbr -e 210 -c 2 -i 16 -a 2 -x {1.0 4.1 5 ------- null}
- -t 2.02659 -s 3 -d 4 -p cbr -e 210 -c 2 -i 16 -a 2 -x {1.0 4.1 5 ------- null}
h -t 2.02659 -s 3 -d 4 -p cbr -e 210 -c 2 -i 16 -a 2 -x {1.0 4.1 -1 ------- null}
r -t 2.02661 -s 3 -d 4 -p cbr -e 210 -c 1 -i 9 -a 1 -x {0.0 4.0 3 ------- null}
r -t 2.02684 -s 2 -d 3 -p cbr -e 210 -c 3 -i 14 -a 3 -x {2.0 4.2 4 ------- null}
+ -t 2.02684 -s 3 -d 4 -p cbr -e 210 -c 3 -i 14 -a 3 -x {2.0 4.2 4 ------- null}
- -t 2.02743 -s 3 -d 4 -p cbr -e 210 -c 3 -i 14 -a 3 -x {2.0 4.2 4 ------- null}
h -t 2.02743 -s 3 -d 4 -p cbr -e 210 -c 3 -i 14 -a 3 -x {2.0 4.2 -1 ------- null}
r -t 2.02759 -s 0 -d 3 -p cbr -e 210 -c 1 -i 15 -a 1 -x {0.0 4.0 5 ------- null}
+ -t 2.02759 -s 3 -d 4 -p cbr -e 210 -c 1 -i 15 -a 1 -x {0.0 4.0 5 ------- null}
- -t 2.02827 -s 3 -d 4 -p cbr -e 210 -c 1 -i 15 -a 1 -x {0.0 4.0 5 ------- null}
h -t 2.02827 -s 3 -d 4 -p cbr -e 210 -c 1 -i 15 -a 1 -x {0.0 4.0 -1 ------- null}
r -t 2.02868 -s 3 -d 4 -p cbr -e 210 -c 2 -i 13 -a 2 -x {1.0 4.1 4 ------- null}
r -t 2.02952 -s 3 -d 4 -p cbr -e 210 -c 3 -i 11 -a 3 -x {2.0 4.2 3 ------- null}
+ -t 2.03 -s 0 -d 3 -p cbr -e 210 -c 1 -i 24 -a 1 -x {0.0 4.0 8 ------- null}
- -t 2.03 -s 0 -d 3 -p cbr -e 210 -c 1 -i 24 -a 1 -x {0.0 4.0 8 ------- null}
h -t 2.03 -s 0 -d 3 -p cbr -e 210 -c 1 -i 24 -a 1 -x {0.0 4.0 -1 ------- null}
+ -t 2.03 -s 1 -d 3 -p cbr -e 210 -c 2 -i 25 -a 2 -x {1.0 4.1 8 ------- null}
- -t 2.03 -s 1 -d 3 -p cbr -e 210 -c 2 -i 25 -a 2 -x {1.0 4.1 8 ------- null}
h -t 2.03 -s 1 -d 3 -p cbr -e 210 -c 2 -i 25 -a 2 -x {1.0 4.1 -1 ------- null}
+ -t 2.03 -s 2 -d 3 -p cbr -e 210 -c 3 -i 26 -a 3 -x {2.0 4.2 8 ------- null}
- -t 2.03 -s 2 -d 3 -p cbr -e 210 -c 3 -i 26 -a 3 -x {2.0 4.2 8 ------- null}
h -t 2.03 -s 2 -d 3 -p cbr -e 210 -c 3 -i 26 -a 3 -x {2.0 4.2 -1 ------- null}
r -t 2.03034 -s 1 -d 3 -p cbr -e 210 -c 2 -i 19 -a 2 -x {1.0 4.1 6 ------- null}
+ -t 2.03034 -s 3 -d 4 -p cbr -e 210 -c 2 -i 19 -a 2 -x {1.0 4.1 6 ------- null}
- -t 2.03034 -s 3 -d 4 -p cbr -e 210 -c 2 -i 19 -a 2 -x {1.0 4.1 6 ------- null}
h -t 2.03034 -s 3 -d 4 -p cbr -e 210 -c 2 -i 19 -a 2 -x {1.0 4.1 -1 ------- null}
r -t 2.03036 -s 3 -d 4 -p cbr -e 210 -c 1 -i 12 -a 1 -x {0.0 4.0 4 ------- null}
r -t 2.03059 -s 2 -d 3 -p cbr -e 210 -c 3 -i 17 -a 3 -x {2.0 4.2 5 ------- null}
+ -t 2.03059 -s 3 -d 4 -p cbr -e 210 -c 3 -i 17 -a 3 -x {2.0 4.2 5 ------- null}
- -t 2.03118 -s 3 -d 4 -p cbr -e 210 -c 3 -i 17 -a 3 -x {2.0 4.2 5 ------- null}
h -t 2.03118 -s 3 -d 4 -p cbr -e 210 -c 3 -i 17 -a 3 -x {2.0 4.2 -1 ------- null}
r -t 2.03134 -s 0 -d 3 -p cbr -e 210 -c 1 -i 18 -a 1 -x {0.0 4.0 6 ------- null}
+ -t 2.03134 -s 3 -d 4 -p cbr -e 210 -c 1 -i 18 -a 1 -x {0.0 4.0 6 ------- null}
- -t 2.03202 -s 3 -d 4 -p cbr -e 210 -c 1 -i 18 -a 1 -x {0.0 4.0 6 ------- null}
h -t 2.03202 -s 3 -d 4 -p cbr -e 210 -c 1 -i 18 -a 1 -x {0.0 4.0 -1 ------- null}
r -t 2.03243 -s 3 -d 4 -p cbr -e 210 -c 2 -i 16 -a 2 -x {1.0 4.1 5 ------- null}
r -t 2.03327 -s 3 -d 4 -p cbr -e 210 -c 3 -i 14 -a 3 -x {2.0 4.2 4 ------- null}
+ -t 2.03375 -s 0 -d 3 -p cbr -e 210 -c 1 -i 27 -a 1 -x {0.0 4.0 9 ------- null}
- -t 2.03375 -s 0 -d 3 -p cbr -e 210 -c 1 -i 27 -a 1 -x {0.0 4.0 9 ------- null}
h -t 2.03375 -s 0 -d 3 -p cbr -e 210 -c 1 -i 27 -a 1 -x {0.0 4.0 -1 ------- null}
+ -t 2.03375 -s 1 -d 3 -p cbr -e 210 -c 2 -i 28 -a 2 -x {1.0 4.1 9 ------- null}
- -t 2.03375 -s 1 -d 3 -p cbr -e 210 -c 2 -i 28 -a 2 -x {1.0 4.1 9 ------- null}
h -t 2.03375 -s 1 -d 3 -p cbr -e 210 -c 2 -i 28 -a 2 -x {1.0 4.1 -1 ------- null}
+ -t 2.03375 -s 2 -d 3 -p cbr -e 210 -c 3 -i 29 -a 3 -x {2.0 4.2 9 ------- null}
- -t 2.03375 -s 2 -d 3 -p cbr -e 210 -c 3 -i 29 -a 3 -x {2.0 4.2 9 ------- null}
h -t 2.03375 -s 2 -d 3 -p cbr -e 210 -c 3 -i 29 -a 3 -x {2.0 4.2 -1 ------- null}
r -t 2.03409 -s 1 -d 3 -p cbr -e 210 -c 2 -i 22 -a 2 -x {1.0 4.1 7 ------- null}
+ -t 2.03409 -s 3 -d 4 -p cbr -e 210 -c 2 -i 22 -a 2 -x {1.0 4.1 7 ------- null}
- -t 2.03409 -s 3 -d 4 -p cbr -e 210 -c 2 -i 22 -a 2 -x {1.0 4.1 7 ------- null}
h -t 2.03409 -s 3 -d 4 -p cbr -e 210 -c 2 -i 22 -a 2 -x {1.0 4.1 -1 ------- null}
r -t 2.03411 -s 3 -d 4 -p cbr -e 210 -c 1 -i 15 -a 1 -x {0.0 4.0 5 ------- null}
r -t 2.03434 -s 2 -d 3 -p cbr -e 210 -c 3 -i 20 -a 3 -x {2.0 4.2 6 ------- null}
+ -t 2.03434 -s 3 -d 4 -p cbr -e 210 -c 3 -i 20 -a 3 -x {2.0 4.2 6 ------- null}
- -t 2.03493 -s 3 -d 4 -p cbr -e 210 -c 3 -i 20 -a 3 -x {2.0 4.2 6 ------- null}
h -t 2.03493 -s 3 -d 4 -p cbr -e 210 -c 3 -i 20 -a 3 -x {2.0 4.2 -1 ------- null}
r -t 2.03509 -s 0 -d 3 -p cbr -e 210 -c 1 -i 21 -a 1 -x {0.0 4.0 7 ------- null}
+ -t 2.03509 -s 3 -d 4 -p cbr -e 210 -c 1 -i 21 -a 1 -x {0.0 4.0 7 ------- null}
- -t 2.03577 -s 3 -d 4 -p cbr -e 210 -c 1 -i 21 -a 1 -x {0.0 4.0 7 ------- null}
h -t 2.03577 -s 3 -d 4 -p cbr -e 210 -c 1 -i 21 -a 1 -x {0.0 4.0 -1 ------- null}
r -t 2.03618 -s 3 -d 4 -p cbr -e 210 -c 2 -i 19 -a 2 -x {1.0 4.1 6 ------- null}
r -t 2.03702 -s 3 -d 4 -p cbr -e 210 -c 3 -i 17 -a 3 -x {2.0 4.2 5 ------- null}
+ -t 2.0375 -s 0 -d 3 -p cbr -e 210 -c 1 -i 30 -a 1 -x {0.0 4.0 10 ------- null}
- -t 2.0375 -s 0 -d 3 -p cbr -e 210 -c 1 -i 30 -a 1 -x {0.0 4.0 10 ------- null}
h -t 2.0375 -s 0 -d 3 -p cbr -e 210 -c 1 -i 30 -a 1 -x {0.0 4.0 -1 ------- null}
+ -t 2.0375 -s 1 -d 3 -p cbr -e 210 -c 2 -i 31 -a 2 -x {1.0 4.1 10 ------- null}
- -t 2.0375 -s 1 -d 3 -p cbr -e 210 -c 2 -i 31 -a 2 -x {1.0 4.1 10 ------- null}
h -t 2.0375 -s 1 -d 3 -p cbr -e 210 -c 2 -i 31 -a 2 -x {1.0 4.1 -1 ------- null}
+ -t 2.0375 -s 2 -d 3 -p cbr -e 210 -c 3 -i 32 -a 3 -x {2.0 4.2 10 ------- null}
- -t 2.0375 -s 2 -d 3 -p cbr -e 210 -c 3 -i 32 -a 3 -x {2.0 4.2 10 ------- null}
h -t 2.0375 -s 2 -d 3 -p cbr -e 210 -c 3 -i 32 -a 3 -x {2.0 4.2 -1 ------- null}
r -t 2.03784 -s 1 -d 3 -p cbr -e 210 -c 2 -i 25 -a 2 -x {1.0 4.1 8 ------- null}
+ -t 2.03784 -s 3 -d 4 -p cbr -e 210 -c 2 -i 25 -a 2 -x {1.0 4.1 8 ------- null}
- -t 2.03784 -s 3 -d 4 -p cbr -e 210 -c 2 -i 25 -a 2 -x {1.0 4.1 8 ------- null}
h -t 2.03784 -s 3 -d 4 -p cbr -e 210 -c 2 -i 25 -a 2 -x {1.0 4.1 -1 ------- null}
r -t 2.03786 -s 3 -d 4 -p cbr -e 210 -c 1 -i 18 -a 1 -x {0.0 4.0 6 ------- null}
r -t 2.03809 -s 2 -d 3 -p cbr -e 210 -c 3 -i 23 -a 3 -x {2.0 4.2 7 ------- null}
+ -t 2.03809 -s 3 -d 4 -p cbr -e 210 -c 3 -i 23 -a 3 -x {2.0 4.2 7 ------- null}
- -t 2.03868 -s 3 -d 4 -p cbr -e 210 -c 3 -i 23 -a 3 -x {2.0 4.2 7 ------- null}
h -t 2.03868 -s 3 -d 4 -p cbr -e 210 -c 3 -i 23 -a 3 -x {2.0 4.2 -1 ------- null}
r -t 2.03884 -s 0 -d 3 -p cbr -e 210 -c 1 -i 24 -a 1 -x {0.0 4.0 8 ------- null}
+ -t 2.03884 -s 3 -d 4 -p cbr -e 210 -c 1 -i 24 -a 1 -x {0.0 4.0 8 ------- null}
- -t 2.03952 -s 3 -d 4 -p cbr -e 210 -c 1 -i 24 -a 1 -x {0.0 4.0 8 ------- null}
h -t 2.03952 -s 3 -d 4 -p cbr -e 210 -c 1 -i 24 -a 1 -x {0.0 4.0 -1 ------- null}
r -t 2.03993 -s 3 -d 4 -p cbr -e 210 -c 2 -i 22 -a 2 -x {1.0 4.1 7 ------- null}
r -t 2.04077 -s 3 -d 4 -p cbr -e 210 -c 3 -i 20 -a 3 -x {2.0 4.2 6 ------- null}
+ -t 2.04125 -s 0 -d 3 -p cbr -e 210 -c 1 -i 33 -a 1 -x {0.0 4.0 11 ------- null}
- -t 2.04125 -s 0 -d 3 -p cbr -e 210 -c 1 -i 33 -a 1 -x {0.0 4.0 11 ------- null}
h -t 2.04125 -s 0 -d 3 -p cbr -e 210 -c 1 -i 33 -a 1 -x {0.0 4.0 -1 ------- null}
+ -t 2.04125 -s 1 -d 3 -p cbr -e 210 -c 2 -i 34 -a 2 -x {1.0 4.1 11 ------- null}
- -t 2.04125 -s 1 -d 3 -p cbr -e 210 -c 2 -i 34 -a 2 -x {1.0 4.1 11 ------- null}
h -t 2.04125 -s 1 -d 3 -p cbr -e 210 -c 2 -i 34 -a 2 -x {1.0 4.1 -1 ------- null}
+ -t 2.04125 -s 2 -d 3 -p cbr -e 210 -c 3 -i 35 -a 3 -x {2.0 4.2 11 ------- null}
- -t 2.04125 -s 2 -d 3 -p cbr -e 210 -c 3 -i 35 -a 3 -x {2.0 4.2 11 ------- null}
h -t 2.04125 -s 2 -d 3 -p cbr -e 210 -c 3 -i 35 -a 3 -x {2.0 4.2 -1 ------- null}
r -t 2.04159 -s 1 -d 3 -p cbr -e 210 -c 2 -i 28 -a 2 -x {1.0 4.1 9 ------- null}
+ -t 2.04159 -s 3 -d 4 -p cbr -e 210 -c 2 -i 28 -a 2 -x {1.0 4.1 9 ------- null}
- -t 2.04159 -s 3 -d 4 -p cbr -e 210 -c 2 -i 28 -a 2 -x {1.0 4.1 9 ------- null}
h -t 2.04159 -s 3 -d 4 -p cbr -e 210 -c 2 -i 28 -a 2 -x {1.0 4.1 -1 ------- null}
r -t 2.04161 -s 3 -d 4 -p cbr -e 210 -c 1 -i 21 -a 1 -x {0.0 4.0 7 ------- null}
r -t 2.04184 -s 2 -d 3 -p cbr -e 210 -c 3 -i 26 -a 3 -x {2.0 4.2 8 ------- null}
+ -t 2.04184 -s 3 -d 4 -p cbr -e 210 -c 3 -i 26 -a 3 -x {2.0 4.2 8 ------- null}
- -t 2.04243 -s 3 -d 4 -p cbr -e 210 -c 3 -i 26 -a 3 -x {2.0 4.2 8 ------- null}
h -t 2.04243 -s 3 -d 4 -p cbr -e 210 -c 3 -i 26 -a 3 -x {2.0 4.2 -1 ------- null}
r -t 2.04259 -s 0 -d 3 -p cbr -e 210 -c 1 -i 27 -a 1 -x {0.0 4.0 9 ------- null}
+ -t 2.04259 -s 3 -d 4 -p cbr -e 210 -c 1 -i 27 -a 1 -x {0.0 4.0 9 ------- null}
- -t 2.04327 -s 3 -d 4 -p cbr -e 210 -c 1 -i 27 -a 1 -x {0.0 4.0 9 ------- null}
h -t 2.04327 -s 3 -d 4 -p cbr -e 210 -c 1 -i 27 -a 1 -x {0.0 4.0 -1 ------- null}
r -t 2.04368 -s 3 -d 4 -p cbr -e 210 -c 2 -i 25 -a 2 -x {1.0 4.1 8 ------- null}
r -t 2.04452 -s 3 -d 4 -p cbr -e 210 -c 3 -i 23 -a 3 -x {2.0 4.2 7 ------- null}
+ -t 2.045 -s 0 -d 3 -p cbr -e 210 -c 1 -i 36 -a 1 -x {0.0 4.0 12 ------- null}
- -t 2.045 -s 0 -d 3 -p cbr -e 210 -c 1 -i 36 -a 1 -x {0.0 4.0 12 ------- null}
h -t 2.045 -s 0 -d 3 -p cbr -e 210 -c 1 -i 36 -a 1 -x {0.0 4.0 -1 ------- null}
+ -t 2.045 -s 1 -d 3 -p cbr -e 210 -c 2 -i 37 -a 2 -x {1.0 4.1 12 ------- null}
- -t 2.045 -s 1 -d 3 -p cbr -e 210 -c 2 -i 37 -a 2 -x {1.0 4.1 12 ------- null}
h -t 2.045 -s 1 -d 3 -p cbr -e 210 -c 2 -i 37 -a 2 -x {1.0 4.1 -1 ------- null}
+ -t 2.045 -s 2 -d 3 -p cbr -e 210 -c 3 -i 38 -a 3 -x {2.0 4.2 12 ------- null}
- -t 2.045 -s 2 -d 3 -p cbr -e 210 -c 3 -i 38 -a 3 -x {2.0 4.2 12 ------- null}
h -t 2.045 -s 2 -d 3 -p cbr -e 210 -c 3 -i 38 -a 3 -x {2.0 4.2 -1 ------- null}
r -t 2.04534 -s 1 -d 3 -p cbr -e 210 -c 2 -i 31 -a 2 -x {1.0 4.1 10 ------- null}
+ -t 2.04534 -s 3 -d 4 -p cbr -e 210 -c 2 -i 31 -a 2 -x {1.0 4.1 10 ------- null}
- -t 2.04534 -s 3 -d 4 -p cbr -e 210 -c 2 -i 31 -a 2 -x {1.0 4.1 10 ------- null}
h -t 2.04534 -s 3 -d 4 -p cbr -e 210 -c 2 -i 31 -a 2 -x {1.0 4.1 -1 ------- null}
r -t 2.04536 -s 3 -d 4 -p cbr -e 210 -c 1 -i 24 -a 1 -x {0.0 4.0 8 ------- null}
r -t 2.04559 -s 2 -d 3 -p cbr -e 210 -c 3 -i 29 -a 3 -x {2.0 4.2 9 ------- null}
+ -t 2.04559 -s 3 -d 4 -p cbr -e 210 -c 3 -i 29 -a 3 -x {2.0 4.2 9 ------- null}
- -t 2.04618 -s 3 -d 4 -p cbr -e 210 -c 3 -i 29 -a 3 -x {2.0 4.2 9 ------- null}
h -t 2.04618 -s 3 -d 4 -p cbr -e 210 -c 3 -i 29 -a 3 -x {2.0 4.2 -1 ------- null}
r -t 2.04634 -s 0 -d 3 -p cbr -e 210 -c 1 -i 30 -a 1 -x {0.0 4.0 10 ------- null}
+ -t 2.04634 -s 3 -d 4 -p cbr -e 210 -c 1 -i 30 -a 1 -x {0.0 4.0 10 ------- null}
- -t 2.04702 -s 3 -d 4 -p cbr -e 210 -c 1 -i 30 -a 1 -x {0.0 4.0 10 ------- null}
h -t 2.04702 -s 3 -d 4 -p cbr -e 210 -c 1 -i 30 -a 1 -x {0.0 4.0 -1 ------- null}
r -t 2.04743 -s 3 -d 4 -p cbr -e 210 -c 2 -i 28 -a 2 -x {1.0 4.1 9 ------- null}
r -t 2.04827 -s 3 -d 4 -p cbr -e 210 -c 3 -i 26 -a 3 -x {2.0 4.2 8 ------- null}
+ -t 2.04875 -s 0 -d 3 -p cbr -e 210 -c 1 -i 39 -a 1 -x {0.0 4.0 13 ------- null}
- -t 2.04875 -s 0 -d 3 -p cbr -e 210 -c 1 -i 39 -a 1 -x {0.0 4.0 13 ------- null}
h -t 2.04875 -s 0 -d 3 -p cbr -e 210 -c 1 -i 39 -a 1 -x {0.0 4.0 -1 ------- null}
+ -t 2.04875 -s 1 -d 3 -p cbr -e 210 -c 2 -i 40 -a 2 -x {1.0 4.1 13 ------- null}
- -t 2.04875 -s 1 -d 3 -p cbr -e 210 -c 2 -i 40 -a 2 -x {1.0 4.1 13 ------- null}
h -t 2.04875 -s 1 -d 3 -p cbr -e 210 -c 2 -i 40 -a 2 -x {1.0 4.1 -1 ------- null}
+ -t 2.04875 -s 2 -d 3 -p cbr -e 210 -c 3 -i 41 -a 3 -x {2.0 4.2 13 ------- null}
- -t 2.04875 -s 2 -d 3 -p cbr -e 210 -c 3 -i 41 -a 3 -x {2.0 4.2 13 ------- null}
h -t 2.04875 -s 2 -d 3 -p cbr -e 210 -c 3 -i 41 -a 3 -x {2.0 4.2 -1 ------- null}
r -t 2.04909 -s 1 -d 3 -p cbr -e 210 -c 2 -i 34 -a 2 -x {1.0 4.1 11 ------- null}
+ -t 2.04909 -s 3 -d 4 -p cbr -e 210 -c 2 -i 34 -a 2 -x {1.0 4.1 11 ------- null}
- -t 2.04909 -s 3 -d 4 -p cbr -e 210 -c 2 -i 34 -a 2 -x {1.0 4.1 11 ------- null}
h -t 2.04909 -s 3 -d 4 -p cbr -e 210 -c 2 -i 34 -a 2 -x {1.0 4.1 -1 ------- null}
r -t 2.04911 -s 3 -d 4 -p cbr -e 210 -c 1 -i 27 -a 1 -x {0.0 4.0 9 ------- null}
r -t 2.04934 -s 2 -d 3 -p cbr -e 210 -c 3 -i 32 -a 3 -x {2.0 4.2 10 ------- null}
+ -t 2.04934 -s 3 -d 4 -p cbr -e 210 -c 3 -i 32 -a 3 -x {2.0 4.2 10 ------- null}
- -t 2.04993 -s 3 -d 4 -p cbr -e 210 -c 3 -i 32 -a 3 -x {2.0 4.2 10 ------- null}
h -t 2.04993 -s 3 -d 4 -p cbr -e 210 -c 3 -i 32 -a 3 -x {2.0 4.2 -1 ------- null}
r -t 2.05009 -s 0 -d 3 -p cbr -e 210 -c 1 -i 33 -a 1 -x {0.0 4.0 11 ------- null}
+ -t 2.05009 -s 3 -d 4 -p cbr -e 210 -c 1 -i 33 -a 1 -x {0.0 4.0 11 ------- null}
- -t 2.05077 -s 3 -d 4 -p cbr -e 210 -c 1 -i 33 -a 1 -x {0.0 4.0 11 ------- null}
h -t 2.05077 -s 3 -d 4 -p cbr -e 210 -c 1 -i 33 -a 1 -x {0.0 4.0 -1 ------- null}
r -t 2.05118 -s 3 -d 4 -p cbr -e 210 -c 2 -i 31 -a 2 -x {1.0 4.1 10 ------- null}
r -t 2.05202 -s 3 -d 4 -p cbr -e 210 -c 3 -i 29 -a 3 -x {2.0 4.2 9 ------- null}
+ -t 2.0525 -s 0 -d 3 -p cbr -e 210 -c 1 -i 42 -a 1 -x {0.0 4.0 14 ------- null}
- -t 2.0525 -s 0 -d 3 -p cbr -e 210 -c 1 -i 42 -a 1 -x {0.0 4.0 14 ------- null}
h -t 2.0525 -s 0 -d 3 -p cbr -e 210 -c 1 -i 42 -a 1 -x {0.0 4.0 -1 ------- null}
+ -t 2.0525 -s 1 -d 3 -p cbr -e 210 -c 2 -i 43 -a 2 -x {1.0 4.1 14 ------- null}
- -t 2.0525 -s 1 -d 3 -p cbr -e 210 -c 2 -i 43 -a 2 -x {1.0 4.1 14 ------- null}
h -t 2.0525 -s 1 -d 3 -p cbr -e 210 -c 2 -i 43 -a 2 -x {1.0 4.1 -1 ------- null}
+ -t 2.0525 -s 2 -d 3 -p cbr -e 210 -c 3 -i 44 -a 3 -x {2.0 4.2 14 ------- null}
- -t 2.0525 -s 2 -d 3 -p cbr -e 210 -c 3 -i 44 -a 3 -x {2.0 4.2 14 ------- null}
h -t 2.0525 -s 2 -d 3 -p cbr -e 210 -c 3 -i 44 -a 3 -x {2.0 4.2 -1 ------- null}
r -t 2.05284 -s 1 -d 3 -p cbr -e 210 -c 2 -i 37 -a 2 -x {1.0 4.1 12 ------- null}
+ -t 2.05284 -s 3 -d 4 -p cbr -e 210 -c 2 -i 37 -a 2 -x {1.0 4.1 12 ------- null}
- -t 2.05284 -s 3 -d 4 -p cbr -e 210 -c 2 -i 37 -a 2 -x {1.0 4.1 12 ------- null}
h -t 2.05284 -s 3 -d 4 -p cbr -e 210 -c 2 -i 37 -a 2 -x {1.0 4.1 -1 ------- null}
r -t 2.05286 -s 3 -d 4 -p cbr -e 210 -c 1 -i 30 -a 1 -x {0.0 4.0 10 ------- null}
r -t 2.05309 -s 2 -d 3 -p cbr -e 210 -c 3 -i 35 -a 3 -x {2.0 4.2 11 ------- null}
+ -t 2.05309 -s 3 -d 4 -p cbr -e 210 -c 3 -i 35 -a 3 -x {2.0 4.2 11 ------- null}
- -t 2.05368 -s 3 -d 4 -p cbr -e 210 -c 3 -i 35 -a 3 -x {2.0 4.2 11 ------- null}
h -t 2.05368 -s 3 -d 4 -p cbr -e 210 -c 3 -i 35 -a 3 -x {2.0 4.2 -1 ------- null}
r -t 2.05384 -s 0 -d 3 -p cbr -e 210 -c 1 -i 36 -a 1 -x {0.0 4.0 12 ------- null}
+ -t 2.05384 -s 3 -d 4 -p cbr -e 210 -c 1 -i 36 -a 1 -x {0.0 4.0 12 ------- null}
- -t 2.05452 -s 3 -d 4 -p cbr -e 210 -c 1 -i 36 -a 1 -x {0.0 4.0 12 ------- null}
h -t 2.05452 -s 3 -d 4 -p cbr -e 210 -c 1 -i 36 -a 1 -x {0.0 4.0 -1 ------- null}
r -t 2.05493 -s 3 -d 4 -p cbr -e 210 -c 2 -i 34 -a 2 -x {1.0 4.1 11 ------- null}
r -t 2.05577 -s 3 -d 4 -p cbr -e 210 -c 3 -i 32 -a 3 -x {2.0 4.2 10 ------- null}
+ -t 2.05625 -s 0 -d 3 -p cbr -e 210 -c 1 -i 45 -a 1 -x {0.0 4.0 15 ------- null}
- -t 2.05625 -s 0 -d 3 -p cbr -e 210 -c 1 -i 45 -a 1 -x {0.0 4.0 15 ------- null}
h -t 2.05625 -s 0 -d 3 -p cbr -e 210 -c 1 -i 45 -a 1 -x {0.0 4.0 -1 ------- null}
+ -t 2.05625 -s 1 -d 3 -p cbr -e 210 -c 2 -i 46 -a 2 -x {1.0 4.1 15 ------- null}
- -t 2.05625 -s 1 -d 3 -p cbr -e 210 -c 2 -i 46 -a 2 -x {1.0 4.1 15 ------- null}
h -t 2.05625 -s 1 -d 3 -p cbr -e 210 -c 2 -i 46 -a 2 -x {1.0 4.1 -1 ------- null}
+ -t 2.05625 -s 2 -d 3 -p cbr -e 210 -c 3 -i 47 -a 3 -x {2.0 4.2 15 ------- null}
- -t 2.05625 -s 2 -d 3 -p cbr -e 210 -c 3 -i 47 -a 3 -x {2.0 4.2 15 ------- null}
h -t 2.05625 -s 2 -d 3 -p cbr -e 210 -c 3 -i 47 -a 3 -x {2.0 4.2 -1 ------- null}
r -t 2.05659 -s 1 -d 3 -p cbr -e 210 -c 2 -i 40 -a 2 -x {1.0 4.1 13 ------- null}
+ -t 2.05659 -s 3 -d 4 -p cbr -e 210 -c 2 -i 40 -a 2 -x {1.0 4.1 13 ------- null}
- -t 2.05659 -s 3 -d 4 -p cbr -e 210 -c 2 -i 40 -a 2 -x {1.0 4.1 13 ------- null}
h -t 2.05659 -s 3 -d 4 -p cbr -e 210 -c 2 -i 40 -a 2 -x {1.0 4.1 -1 ------- null}
r -t 2.05661 -s 3 -d 4 -p cbr -e 210 -c 1 -i 33 -a 1 -x {0.0 4.0 11 ------- null}
r -t 2.05684 -s 2 -d 3 -p cbr -e 210 -c 3 -i 38 -a 3 -x {2.0 4.2 12 ------- null}
+ -t 2.05684 -s 3 -d 4 -p cbr -e 210 -c 3 -i 38 -a 3 -x {2.0 4.2 12 ------- null}
- -t 2.05743 -s 3 -d 4 -p cbr -e 210 -c 3 -i 38 -a 3 -x {2.0 4.2 12 ------- null}
h -t 2.05743 -s 3 -d 4 -p cbr -e 210 -c 3 -i 38 -a 3 -x {2.0 4.2 -1 ------- null}
r -t 2.05759 -s 0 -d 3 -p cbr -e 210 -c 1 -i 39 -a 1 -x {0.0 4.0 13 ------- null}
+ -t 2.05759 -s 3 -d 4 -p cbr -e 210 -c 1 -i 39 -a 1 -x {0.0 4.0 13 ------- null}
- -t 2.05827 -s 3 -d 4 -p cbr -e 210 -c 1 -i 39 -a 1 -x {0.0 4.0 13 ------- null}
h -t 2.05827 -s 3 -d 4 -p cbr -e 210 -c 1 -i 39 -a 1 -x {0.0 4.0 -1 ------- null}
r -t 2.05868 -s 3 -d 4 -p cbr -e 210 -c 2 -i 37 -a 2 -x {1.0 4.1 12 ------- null}
r -t 2.05952 -s 3 -d 4 -p cbr -e 210 -c 3 -i 35 -a 3 -x {2.0 4.2 11 ------- null}
+ -t 2.06 -s 0 -d 3 -p cbr -e 210 -c 1 -i 48 -a 1 -x {0.0 4.0 16 ------- null}
- -t 2.06 -s 0 -d 3 -p cbr -e 210 -c 1 -i 48 -a 1 -x {0.0 4.0 16 ------- null}
h -t 2.06 -s 0 -d 3 -p cbr -e 210 -c 1 -i 48 -a 1 -x {0.0 4.0 -1 ------- null}
+ -t 2.06 -s 1 -d 3 -p cbr -e 210 -c 2 -i 49 -a 2 -x {1.0 4.1 16 ------- null}
- -t 2.06 -s 1 -d 3 -p cbr -e 210 -c 2 -i 49 -a 2 -x {1.0 4.1 16 ------- null}
h -t 2.06 -s 1 -d 3 -p cbr -e 210 -c 2 -i 49 -a 2 -x {1.0 4.1 -1 ------- null}
+ -t 2.06 -s 2 -d 3 -p cbr -e 210 -c 3 -i 50 -a 3 -x {2.0 4.2 16 ------- null}
- -t 2.06 -s 2 -d 3 -p cbr -e 210 -c 3 -i 50 -a 3 -x {2.0 4.2 16 ------- null}
h -t 2.06 -s 2 -d 3 -p cbr -e 210 -c 3 -i 50 -a 3 -x {2.0 4.2 -1 ------- null}
r -t 2.06034 -s 1 -d 3 -p cbr -e 210 -c 2 -i 43 -a 2 -x {1.0 4.1 14 ------- null}
+ -t 2.06034 -s 3 -d 4 -p cbr -e 210 -c 2 -i 43 -a 2 -x {1.0 4.1 14 ------- null}
- -t 2.06034 -s 3 -d 4 -p cbr -e 210 -c 2 -i 43 -a 2 -x {1.0 4.1 14 ------- null}
h -t 2.06034 -s 3 -d 4 -p cbr -e 210 -c 2 -i 43 -a 2 -x {1.0 4.1 -1 ------- null}
r -t 2.06036 -s 3 -d 4 -p cbr -e 210 -c 1 -i 36 -a 1 -x {0.0 4.0 12 ------- null}
r -t 2.06059 -s 2 -d 3 -p cbr -e 210 -c 3 -i 41 -a 3 -x {2.0 4.2 13 ------- null}
+ -t 2.06059 -s 3 -d 4 -p cbr -e 210 -c 3 -i 41 -a 3 -x {2.0 4.2 13 ------- null}
- -t 2.06118 -s 3 -d 4 -p cbr -e 210 -c 3 -i 41 -a 3 -x {2.0 4.2 13 ------- null}