+ 2 0 3 cbr 210 ------- 1 0.0 4.0 0 0
- 2 0 3 cbr 210 ------- 1 0.0 4.0 0 0
+ 2 1 3 cbr 210 ------- 2 1.0 4.1 0 1
- 2 1 3 cbr 210 ------- 2 1.0 4.1 0 1
+ 2 2 3 cbr 210 ------- 3 2.0 4.2 0 2
- 2 2 3 cbr 210 ------- 3 2.0 4.2 0 2
+ 2.00375 0 3 cbr 210 ------- 1 0.0 4.0 1 3
- 2.00375 0 3 cbr 210 ------- 1 0.0 4.0 1 3
+ 2.00375 1 3 cbr 210 ------- 2 1.0 4.1 1 4
- 2.00375 1 3 cbr 210 ------- 2 1.0 4.1 1 4
+ 2.00375 2 3 cbr 210 ------- 3 2.0 4.2 1 5
- 2.00375 2 3 cbr 210 ------- 3 2.0 4.2 1 5
+ 2.0075 0 3 cbr 210 ------- 1 0.0 4.0 2 6
- 2.0075 0 3 cbr 210 ------- 1 0.0 4.0 2 6
+ 2.0075 1 3 cbr 210 ------- 2 1.0 4.1 2 7
- 2.0075 1 3 cbr 210 ------- 2 1.0 4.1 2 7
+ 2.0075 2 3 cbr 210 ------- 3 2.0 4.2 2 8
- 2.0075 2 3 cbr 210 ------- 3 2.0 4.2 2 8
r 2.00784 1 3 cbr 210 ------- 2 1.0 4.1 0 1
+ 2.00784 3 4 cbr 210 ------- 2 1.0 4.1 0 1
- 2.00784 3 4 cbr 210 ------- 2 1.0 4.1 0 1
r 2.00884 0 3 cbr 210 ------- 1 0.0 4.0 0 0
+ 2.00884 3 4 cbr 210 ------- 1 0.0 4.0 0 0
- 2.00884 3 4 cbr 210 ------- 1 0.0 4.0 0 0
+ 2.01125 0 3 cbr 210 ------- 1 0.0 4.0 3 9
- 2.01125 0 3 cbr 210 ------- 1 0.0 4.0 3 9
+ 2.01125 1 3 cbr 210 ------- 2 1.0 4.1 3 10
- 2.01125 1 3 cbr 210 ------- 2 1.0 4.1 3 10
+ 2.01125 2 3 cbr 210 ------- 3 2.0 4.2 3 11
- 2.01125 2 3 cbr 210 ------- 3 2.0 4.2 3 11
r 2.01159 1 3 cbr 210 ------- 2 1.0 4.1 1 4
+ 2.01159 3 4 cbr 210 ------- 2 1.0 4.1 1 4
- 2.01159 3 4 cbr 210 ------- 2 1.0 4.1 1 4
r 2.01184 2 3 cbr 210 ------- 3 2.0 4.2 0 2
+ 2.01184 3 4 cbr 210 ------- 3 2.0 4.2 0 2
- 2.01243 3 4 cbr 210 ------- 3 2.0 4.2 0 2
r 2.01259 0 3 cbr 210 ------- 1 0.0 4.0 1 3
+ 2.01259 3 4 cbr 210 ------- 1 0.0 4.0 1 3
- 2.01327 3 4 cbr 210 ------- 1 0.0 4.0 1 3
r 2.01368 3 4 cbr 210 ------- 2 1.0 4.1 0 1
r 2.01468 3 4 cbr 210 ------- 1 0.0 4.0 0 0
+ 2.015 0 3 cbr 210 ------- 1 0.0 4.0 4 12
- 2.015 0 3 cbr 210 ------- 1 0.0 4.0 4 12
+ 2.015 1 3 cbr 210 ------- 2 1.0 4.1 4 13
- 2.015 1 3 cbr 210 ------- 2 1.0 4.1 4 13
+ 2.015 2 3 cbr 210 ------- 3 2.0 4.2 4 14
- 2.015 2 3 cbr 210 ------- 3 2.0 4.2 4 14
r 2.01534 1 3 cbr 210 ------- 2 1.0 4.1 2 7
+ 2.01534 3 4 cbr 210 ------- 2 1.0 4.1 2 7
- 2.01534 3 4 cbr 210 ------- 2 1.0 4.1 2 7
r 2.01559 2 3 cbr 210 ------- 3 2.0 4.2 1 5
+ 2.01559 3 4 cbr 210 ------- 3 2.0 4.2 1 5
- 2.01618 3 4 cbr 210 ------- 3 2.0 4.2 1 5
r 2.01634 0 3 cbr 210 ------- 1 0.0 4.0 2 6
+ 2.01634 3 4 cbr 210 ------- 1 0.0 4.0 2 6
- 2.01702 3 4 cbr 210 ------- 1 0.0 4.0 2 6
r 2.01743 3 4 cbr 210 ------- 2 1.0 4.1 1 4
r 2.01827 3 4 cbr 210 ------- 3 2.0 4.2 0 2
+ 2.01875 0 3 cbr 210 ------- 1 0.0 4.0 5 15
- 2.01875 0 3 cbr 210 ------- 1 0.0 4.0 5 15
+ 2.01875 1 3 cbr 210 ------- 2 1.0 4.1 5 16
- 2.01875 1 3 cbr 210 ------- 2 1.0 4.1 5 16
+ 2.01875 2 3 cbr 210 ------- 3 2.0 4.2 5 17
- 2.01875 2 3 cbr 210 ------- 3 2.0 4.2 5 17
r 2.01909 1 3 cbr 210 ------- 2 1.0 4.1 3 10
+ 2.01909 3 4 cbr 210 ------- 2 1.0 4.1 3 10
- 2.01909 3 4 cbr 210 ------- 2 1.0 4.1 3 10
r 2.01911 3 4 cbr 210 ------- 1 0.0 4.0 1 3
r 2.01934 2 3 cbr 210 ------- 3 2.0 4.2 2 8
+ 2.01934 3 4 cbr 210 ------- 3 2.0 4.2 2 8
- 2.01993 3 4 cbr 210 ------- 3 2.0 4.2 2 8
r 2.02009 0 3 cbr 210 ------- 1 0.0 4.0 3 9
+ 2.02009 3 4 cbr 210 ------- 1 0.0 4.0 3 9
- 2.02077 3 4 cbr 210 ------- 1 0.0 4.0 3 9
r 2.02118 3 4 cbr 210 ------- 2 1.0 4.1 2 7
r 2.02202 3 4 cbr 210 ------- 3 2.0 4.2 1 5
+ 2.0225 0 3 cbr 210 ------- 1 0.0 4.0 6 18
- 2.0225 0 3 cbr 210 ------- 1 0.0 4.0 6 18
+ 2.0225 1 3 cbr 210 ------- 2 1.0 4.1 6 19
- 2.0225 1 3 cbr 210 ------- 2 1.0 4.1 6 19
+ 2.0225 2 3 cbr 210 ------- 3 2.0 4.2 6 20
- 2.0225 2 3 cbr 210 ------- 3 2.0 4.2 6 20
r 2.02284 1 3 cbr 210 ------- 2 1.0 4.1 4 13
+ 2.02284 3 4 cbr 210 ------- 2 1.0 4.1 4 13
- 2.02284 3 4 cbr 210 ------- 2 1.0 4.1 4 13
r 2.02286 3 4 cbr 210 ------- 1 0.0 4.0 2 6
r 2.02309 2 3 cbr 210 ------- 3 2.0 4.2 3 11
+ 2.02309 3 4 cbr 210 ------- 3 2.0 4.2 3 11
- 2.02368 3 4 cbr 210 ------- 3 2.0 4.2 3 11
r 2.02384 0 3 cbr 210 ------- 1 0.0 4.0 4 12
+ 2.02384 3 4 cbr 210 ------- 1 0.0 4.0 4 12
- 2.02452 3 4 cbr 210 ------- 1 0.0 4.0 4 12
r 2.02493 3 4 cbr 210 ------- 2 1.0 4.1 3 10
r 2.02577 3 4 cbr 210 ------- 3 2.0 4.2 2 8
+ 2.02625 0 3 cbr 210 ------- 1 0.0 4.0 7 21
- 2.02625 0 3 cbr 210 ------- 1 0.0 4.0 7 21
+ 2.02625 1 3 cbr 210 ------- 2 1.0 4.1 7 22
- 2.02625 1 3 cbr 210 ------- 2 1.0 4.1 7 22
+ 2.02625 2 3 cbr 210 ------- 3 2.0 4.2 7 23
- 2.02625 2 3 cbr 210 ------- 3 2.0 4.2 7 23
r 2.02659 1 3 cbr 210 ------- 2 1.0 4.1 5 16
+ 2.02659 3 4 cbr 210 ------- 2 1.0 4.1 5 16
- 2.02659 3 4 cbr 210 ------- 2 1.0 4.1 5 16
r 2.02661 3 4 cbr 210 ------- 1 0.0 4.0 3 9
r 2.02684 2 3 cbr 210 ------- 3 2.0 4.2 4 14
+ 2.02684 3 4 cbr 210 ------- 3 2.0 4.2 4 14
- 2.02743 3 4 cbr 210 ------- 3 2.0 4.2 4 14
r 2.02759 0 3 cbr 210 ------- 1 0.0 4.0 5 15
+ 2.02759 3 4 cbr 210 ------- 1 0.0 4.0 5 15
- 2.02827 3 4 cbr 210 ------- 1 0.0 4.0 5 15
r 2.02868 3 4 cbr 210 ------- 2 1.0 4.1 4 13
r 2.02952 3 4 cbr 210 ------- 3 2.0 4.2 3 11
+ 2.03 0 3 cbr 210 ------- 1 0.0 4.0 8 24
- 2.03 0 3 cbr 210 ------- 1 0.0 4.0 8 24
+ 2.03 1 3 cbr 210 ------- 2 1.0 4.1 8 25
- 2.03 1 3 cbr 210 ------- 2 1.0 4.1 8 25
+ 2.03 2 3 cbr 210 ------- 3 2.0 4.2 8 26
- 2.03 2 3 cbr 210 ------- 3 2.0 4.2 8 26
r 2.03034 1 3 cbr 210 ------- 2 1.0 4.1 6 19
+ 2.03034 3 4 cbr 210 ------- 2 1.0 4.1 6 19
- 2.03034 3 4 cbr 210 ------- 2 1.0 4.1 6 19
r 2.03036 3 4 cbr 210 ------- 1 0.0 4.0 4 12
r 2.03059 2 3 cbr 210 ------- 3 2.0 4.2 5 17
+ 2.03059 3 4 cbr 210 ------- 3 2.0 4.2 5 17
- 2.03118 3 4 cbr 210 ------- 3 2.0 4.2 5 17
r 2.03134 0 3 cbr 210 ------- 1 0.0 4.0 6 18
+ 2.03134 3 4 cbr 210 ------- 1 0.0 4.0 6 18
- 2.03202 3 4 cbr 210 ------- 1 0.0 4.0 6 18
r 2.03243 3 4 cbr 210 ------- 2 1.0 4.1 5 16
r 2.03327 3 4 cbr 210 ------- 3 2.0 4.2 4 14
+ 2.03375 0 3 cbr 210 ------- 1 0.0 4.0 9 27
- 2.03375 0 3 cbr 210 ------- 1 0.0 4.0 9 27
+ 2.03375 1 3 cbr 210 ------- 2 1.0 4.1 9 28
- 2.03375 1 3 cbr 210 ------- 2 1.0 4.1 9 28
+ 2.03375 2 3 cbr 210 ------- 3 2.0 4.2 9 29
- 2.03375 2 3 cbr 210 ------- 3 2.0 4.2 9 29
r 2.03409 1 3 cbr 210 ------- 2 1.0 4.1 7 22
+ 2.03409 3 4 cbr 210 ------- 2 1.0 4.1 7 22
- 2.03409 3 4 cbr 210 ------- 2 1.0 4.1 7 22
r 2.03411 3 4 cbr 210 ------- 1 0.0 4.0 5 15
r 2.03434 2 3 cbr 210 ------- 3 2.0 4.2 6 20
+ 2.03434 3 4 cbr 210 ------- 3 2.0 4.2 6 20
- 2.03493 3 4 cbr 210 ------- 3 2.0 4.2 6 20
r 2.03509 0 3 cbr 210 ------- 1 0.0 4.0 7 21
+ 2.03509 3 4 cbr 210 ------- 1 0.0 4.0 7 21
- 2.03577 3 4 cbr 210 ------- 1 0.0 4.0 7 21
r 2.03618 3 4 cbr 210 ------- 2 1.0 4.1 6 19
r 2.03702 3 4 cbr 210 ------- 3 2.0 4.2 5 17
+ 2.0375 0 3 cbr 210 ------- 1 0.0 4.0 10 30
- 2.0375 0 3 cbr 210 ------- 1 0.0 4.0 10 30
+ 2.0375 1 3 cbr 210 ------- 2 1.0 4.1 10 31
- 2.0375 1 3 cbr 210 ------- 2 1.0 4.1 10 31
+ 2.0375 2 3 cbr 210 ------- 3 2.0 4.2 10 32
- 2.0375 2 3 cbr 210 ------- 3 2.0 4.2 10 32
r 2.03784 1 3 cbr 210 ------- 2 1.0 4.1 8 25
+ 2.03784 3 4 cbr 210 ------- 2 1.0 4.1 8 25
- 2.03784 3 4 cbr 210 ------- 2 1.0 4.1 8 25
r 2.03786 3 4 cbr 210 ------- 1 0.0 4.0 6 18
r 2.03809 2 3 cbr 210 ------- 3 2.0 4.2 7 23
+ 2.03809 3 4 cbr 210 ------- 3 2.0 4.2 7 23
- 2.03868 3 4 cbr 210 ------- 3 2.0 4.2 7 23
r 2.03884 0 3 cbr 210 ------- 1 0.0 4.0 8 24
+ 2.03884 3 4 cbr 210 ------- 1 0.0 4.0 8 24
- 2.03952 3 4 cbr 210 ------- 1 0.0 4.0 8 24
r 2.03993 3 4 cbr 210 ------- 2 1.0 4.1 7 22
r 2.04077 3 4 cbr 210 ------- 3 2.0 4.2 6 20
+ 2.04125 0 3 cbr 210 ------- 1 0.0 4.0 11 33
- 2.04125 0 3 cbr 210 ------- 1 0.0 4.0 11 33
+ 2.04125 1 3 cbr 210 ------- 2 1.0 4.1 11 34
- 2.04125 1 3 cbr 210 ------- 2 1.0 4.1 11 34
+ 2.04125 2 3 cbr 210 ------- 3 2.0 4.2 11 35
- 2.04125 2 3 cbr 210 ------- 3 2.0 4.2 11 35
r 2.04159 1 3 cbr 210 ------- 2 1.0 4.1 9 28
+ 2.04159 3 4 cbr 210 ------- 2 1.0 4.1 9 28
- 2.04159 3 4 cbr 210 ------- 2 1.0 4.1 9 28
r 2.04161 3 4 cbr 210 ------- 1 0.0 4.0 7 21
r 2.04184 2 3 cbr 210 ------- 3 2.0 4.2 8 26
+ 2.04184 3 4 cbr 210 ------- 3 2.0 4.2 8 26
- 2.04243 3 4 cbr 210 ------- 3 2.0 4.2 8 26
r 2.04259 0 3 cbr 210 ------- 1 0.0 4.0 9 27
+ 2.04259 3 4 cbr 210 ------- 1 0.0 4.0 9 27
- 2.04327 3 4 cbr 210 ------- 1 0.0 4.0 9 27
r 2.04368 3 4 cbr 210 ------- 2 1.0 4.1 8 25
r 2.04452 3 4 cbr 210 ------- 3 2.0 4.2 7 23
+ 2.045 0 3 cbr 210 ------- 1 0.0 4.0 12 36
- 2.045 0 3 cbr 210 ------- 1 0.0 4.0 12 36
+ 2.045 1 3 cbr 210 ------- 2 1.0 4.1 12 37
- 2.045 1 3 cbr 210 ------- 2 1.0 4.1 12 37
+ 2.045 2 3 cbr 210 ------- 3 2.0 4.2 12 38
- 2.045 2 3 cbr 210 ------- 3 2.0 4.2 12 38
r 2.04534 1 3 cbr 210 ------- 2 1.0 4.1 10 31
+ 2.04534 3 4 cbr 210 ------- 2 1.0 4.1 10 31
- 2.04534 3 4 cbr 210 ------- 2 1.0 4.1 10 31
r 2.04536 3 4 cbr 210 ------- 1 0.0 4.0 8 24
r 2.04559 2 3 cbr 210 ------- 3 2.0 4.2 9 29
+ 2.04559 3 4 cbr 210 ------- 3 2.0 4.2 9 29
- 2.04618 3 4 cbr 210 ------- 3 2.0 4.2 9 29
r 2.04634 0 3 cbr 210 ------- 1 0.0 4.0 10 30
+ 2.04634 3 4 cbr 210 ------- 1 0.0 4.0 10 30
- 2.04702 3 4 cbr 210 ------- 1 0.0 4.0 10 30
r 2.04743 3 4 cbr 210 ------- 2 1.0 4.1 9 28
r 2.04827 3 4 cbr 210 ------- 3 2.0 4.2 8 26
+ 2.04875 0 3 cbr 210 ------- 1 0.0 4.0 13 39
- 2.04875 0 3 cbr 210 ------- 1 0.0 4.0 13 39
+ 2.04875 1 3 cbr 210 ------- 2 1.0 4.1 13 40
- 2.04875 1 3 cbr 210 ------- 2 1.0 4.1 13 40
+ 2.04875 2 3 cbr 210 ------- 3 2.0 4.2 13 41
- 2.04875 2 3 cbr 210 ------- 3 2.0 4.2 13 41
r 2.04909 1 3 cbr 210 ------- 2 1.0 4.1 11 34
+ 2.04909 3 4 cbr 210 ------- 2 1.0 4.1 11 34
- 2.04909 3 4 cbr 210 ------- 2 1.0 4.1 11 34
r 2.04911 3 4 cbr 210 ------- 1 0.0 4.0 9 27
r 2.04934 2 3 cbr 210 ------- 3 2.0 4.2 10 32
+ 2.04934 3 4 cbr 210 ------- 3 2.0 4.2 10 32
- 2.04993 3 4 cbr 210 ------- 3 2.0 4.2 10 32
r 2.05009 0 3 cbr 210 ------- 1 0.0 4.0 11 33
+ 2.05009 3 4 cbr 210 ------- 1 0.0 4.0 11 33
- 2.05077 3 4 cbr 210 ------- 1 0.0 4.0 11 33
r 2.05118 3 4 cbr 210 ------- 2 1.0 4.1 10 31
r 2.05202 3 4 cbr 210 ------- 3 2.0 4.2 9 29
+ 2.0525 0 3 cbr 210 ------- 1 0.0 4.0 14 42
- 2.0525 0 3 cbr 210 ------- 1 0.0 4.0 14 42
+ 2.0525 1 3 cbr 210 ------- 2 1.0 4.1 14 43
- 2.0525 1 3 cbr 210 ------- 2 1.0 4.1 14 43
+ 2.0525 2 3 cbr 210 ------- 3 2.0 4.2 14 44
- 2.0525 2 3 cbr 210 ------- 3 2.0 4.2 14 44
r 2.05284 1 3 cbr 210 ------- 2 1.0 4.1 12 37
+ 2.05284 3 4 cbr 210 ------- 2 1.0 4.1 12 37
- 2.05284 3 4 cbr 210 ------- 2 1.0 4.1 12 37
r 2.05286 3 4 cbr 210 ------- 1 0.0 4.0 10 30
r 2.05309 2 3 cbr 210 ------- 3 2.0 4.2 11 35
+ 2.05309 3 4 cbr 210 ------- 3 2.0 4.2 11 35
- 2.05368 3 4 cbr 210 ------- 3 2.0 4.2 11 35
r 2.05384 0 3 cbr 210 ------- 1 0.0 4.0 12 36
+ 2.05384 3 4 cbr 210 ------- 1 0.0 4.0 12 36
- 2.05452 3 4 cbr 210 ------- 1 0.0 4.0 12 36
r 2.05493 3 4 cbr 210 ------- 2 1.0 4.1 11 34
r 2.05577 3 4 cbr 210 ------- 3 2.0 4.2 10 32
+ 2.05625 0 3 cbr 210 ------- 1 0.0 4.0 15 45
- 2.05625 0 3 cbr 210 ------- 1 0.0 4.0 15 45
+ 2.05625 1 3 cbr 210 ------- 2 1.0 4.1 15 46
- 2.05625 1 3 cbr 210 ------- 2 1.0 4.1 15 46
+ 2.05625 2 3 cbr 210 ------- 3 2.0 4.2 15 47
- 2.05625 2 3 cbr 210 ------- 3 2.0 4.2 15 47
r 2.05659 1 3 cbr 210 ------- 2 1.0 4.1 13 40
+ 2.05659 3 4 cbr 210 ------- 2 1.0 4.1 13 40
- 2.05659 3 4 cbr 210 ------- 2 1.0 4.1 13 40
r 2.05661 3 4 cbr 210 ------- 1 0.0 4.0 11 33
r 2.05684 2 3 cbr 210 ------- 3 2.0 4.2 12 38
+ 2.05684 3 4 cbr 210 ------- 3 2.0 4.2 12 38
- 2.05743 3 4 cbr 210 ------- 3 2.0 4.2 12 38
r 2.05759 0 3 cbr 210 ------- 1 0.0 4.0 13 39
+ 2.05759 3 4 cbr 210 ------- 1 0.0 4.0 13 39
- 2.05827 3 4 cbr 210 ------- 1 0.0 4.0 13 39
r 2.05868 3 4 cbr 210 ------- 2 1.0 4.1 12 37
r 2.05952 3 4 cbr 210 ------- 3 2.0 4.2 11 35
+ 2.06 0 3 cbr 210 ------- 1 0.0 4.0 16 48
- 2.06 0 3 cbr 210 ------- 1 0.0 4.0 16 48
+ 2.06 1 3 cbr 210 ------- 2 1.0 4.1 16 49
- 2.06 1 3 cbr 210 ------- 2 1.0 4.1 16 49
+ 2.06 2 3 cbr 210 ------- 3 2.0 4.2 16 50
- 2.06 2 3 cbr 210 ------- 3 2.0 4.2 16 50
r 2.06034 1 3 cbr 210 ------- 2 1.0 4.1 14 43
+ 2.06034 3 4 cbr 210 ------- 2 1.0 4.1 14 43
- 2.06034 3 4 cbr 210 ------- 2 1.0 4.1 14 43
r 2.06036 3 4 cbr 210 ------- 1 0.0 4.0 12 36
r 2.06059 2 3 cbr 210 ------- 3 2.0 4.2 13 41
+ 2.06059 3 4 cbr 210 ------- 3 2.0 4.2 13 41
- 2.06118 3 4 cbr 210 ------- 3 2.0 4.2 13 41
r 2.06134 0 3 cbr 210 ------- 1 0.0 4.0 14 42
+ 2.06134 3 4 cbr 210 ------- 1 0.0 4.0 14 42
- 2.06202 3 4 cbr 210 ------- 1 0.0 4.0 14 42
r 2.06243 3 4 cbr 210 ------- 2 1.0 4.1 13 40
r 2.06327 3 4 cbr 210 ------- 3 2.0 4.2 12 38
+ 2.06375 0 3 cbr 210 ------- 1 0.0 4.0 17 51
- 2.06375 0 3 cbr 210 ------- 1 0.0 4.0 17 51
+ 2.06375 1 3 cbr 210 ------- 2 1.0 4.1 17 52
- 2.06375 1 3 cbr 210 ------- 2 1.0 4.1 17 52
+ 2.06375 2 3 cbr 210 ------- 3 2.0 4.2 17 53
- 2.06375 2 3 cbr 210 ------- 3 2.0 4.2 17 53
r 2.06409 1 3 cbr 210 ------- 2 1.0 4.1 15 46
+ 2.06409 3 4 cbr 210 ------- 2 1.0 4.1 15 46
- 2.06409 3 4 cbr 210 ------- 2 1.0 4.1 15 46
r 2.06411 3 4 cbr 210 ------- 1 0.0 4.0 13 39
r 2.06434 2 3 cbr 210 ------- 3 2.0 4.2 14 44
+ 2.06434 3 4 cbr 210 ------- 3 2.0 4.2 14 44
- 2.06493 3 4 cbr 210 ------- 3 2.0 4.2 14 44
r 2.06509 0 3 cbr 210 ------- 1 0.0 4.0 15 45
+ 2.06509 3 4 cbr 210 ------- 1 0.0 4.0 15 45
- 2.06577 3 4 cbr 210 ------- 1 0.0 4.0 15 45
r 2.06618 3 4 cbr 210 ------- 2 1.0 4.1 14 43
r 2.06702 3 4 cbr 210 ------- 3 2.0 4.2 13 41
+ 2.0675 0 3 cbr 210 ------- 1 0.0 4.0 18 54
- 2.0675 0 3 cbr 210 ------- 1 0.0 4.0 18 54
+ 2.0675 1 3 cbr 210 ------- 2 1.0 4.1 18 55
- 2.0675 1 3 cbr 210 ------- 2 1.0 4.1 18 55
+ 2.0675 2 3 cbr 210 ------- 3 2.0 4.2 18 56
- 2.0675 2 3 cbr 210 ------- 3 2.0 4.2 18 56
r 2.06784 1 3 cbr 210 ------- 2 1.0 4.1 16 49
+ 2.06784 3 4 cbr 210 ------- 2 1.0 4.1 16 49
- 2.06784 3 4 cbr 210 ------- 2 1.0 4.1 16 49
r 2.06786 3 4 cbr 210 ------- 1 0.0 4.0 14 42
r 2.06809 2 3 cbr 210 ------- 3 2.0 4.2 15 47
+ 2.06809 3 4 cbr 210 ------- 3 2.0 4.2 15 47
- 2.06868 3 4 cbr 210 ------- 3 2.0 4.2 15 47
r 2.06884 0 3 cbr 210 ------- 1 0.0 4.0 16 48
+ 2.06884 3 4 cbr 210 ------- 1 0.0 4.0 16 48
- 2.06952 3 4 cbr 210 ------- 1 0.0 4.0 16 48
r 2.06993 3 4 cbr 210 ------- 2 1.0 4.1 15 46
r 2.07077 3 4 cbr 210 ------- 3 2.0 4.2 14 44
+ 2.07125 0 3 cbr 210 ------- 1 0.0 4.0 19 57
- 2.07125 0 3 cbr 210 ------- 1 0.0 4.0 19 57
+ 2.07125 1 3 cbr 210 ------- 2 1.0 4.1 19 58
- 2.07125 1 3 cbr 210 ------- 2 1.0 4.1 19 58
+ 2.07125 2 3 cbr 210 ------- 3 2.0 4.2 19 59
- 2.07125 2 3 cbr 210 ------- 3 2.0 4.2 19 59
r 2.07159 1 3 cbr 210 ------- 2 1.0 4.1 17 52
+ 2.07159 3 4 cbr 210 ------- 2 1.0 4.1 17 52
- 2.07159 3 4 cbr 210 ------- 2 1.0 4.1 17 52
r 2.07161 3 4 cbr 210 ------- 1 0.0 4.0 15 45
r 2.07184 2 3 cbr 210 ------- 3 2.0 4.2 16 50
+ 2.07184 3 4 cbr 210 ------- 3 2.0 4.2 16 50
- 2.07243 3 4 cbr 210 ------- 3 2.0 4.2 16 50
r 2.07259 0 3 cbr 210 ------- 1 0.0 4.0 17 51
+ 2.07259 3 4 cbr 210 ------- 1 0.0 4.0 17 51
- 2.07327 3 4 cbr 210 ------- 1 0.0 4.0 17 51
r 2.07368 3 4 cbr 210 ------- 2 1.0 4.1 16 49
r 2.07452 3 4 cbr 210 ------- 3 2.0 4.2 15 47
+ 2.075 0 3 cbr 210 ------- 1 0.0 4.0 20 60
- 2.075 0 3 cbr 210 ------- 1 0.0 4.0 20 60
+ 2.075 1 3 cbr 210 ------- 2 1.0 4.1 20 61
- 2.075 1 3 cbr 210 ------- 2 1.0 4.1 20 61
+ 2.075 2 3 cbr 210 ------- 3 2.0 4.2 20 62
- 2.075 2 3 cbr 210 ------- 3 2.0 4.2 20 62
r 2.07534 1 3 cbr 210 ------- 2 1.0 4.1 18 55
+ 2.07534 3 4 cbr 210 ------- 2 1.0 4.1 18 55
- 2.07534 3 4 cbr 210 ------- 2 1.0 4.1 18 55
r 2.07536 3 4 cbr 210 ------- 1 0.0 4.0 16 48
r 2.07559 2 3 cbr 210 ------- 3 2.0 4.2 17 53
+ 2.07559 3 4 cbr 210 ------- 3 2.0 4.2 17 53
- 2.07618 3 4 cbr 210 ------- 3 2.0 4.2 17 53
r 2.07634 0 3 cbr 210 ------- 1 0.0 4.0 18 54
+ 2.07634 3 4 cbr 210 ------- 1 0.0 4.0 18 54
- 2.07702 3 4 cbr 210 ------- 1 0.0 4.0 18 54
r 2.07743 3 4 cbr 210 ------- 2 1.0 4.1 17 52
r 2.07827 3 4 cbr 210 ------- 3 2.0 4.2 16 50
+ 2.07875 0 3 cbr 210 ------- 1 0.0 4.0 21 63
- 2.07875 0 3 cbr 210 ------- 1 0.0 4.0 21 63
+ 2.07875 1 3 cbr 210 ------- 2 1.0 4.1 21 64
- 2.07875 1 3 cbr 210 ------- 2 1.0 4.1 21 64
+ 2.07875 2 3 cbr 210 ------- 3 2.0 4.2 21 65
- 2.07875 2 3 cbr 210 ------- 3 2.0 4.2 21 65
r 2.07909 1 3 cbr 210 ------- 2 1.0 4.1 19 58
+ 2.07909 3 4 cbr 210 ------- 2 1.0 4.1 19 58
- 2.07909 3 4 cbr 210 ------- 2 1.0 4.1 19 58
r 2.07911 3 4 cbr 210 ------- 1 0.0 4.0 17 51
r 2.07934 2 3 cbr 210 ------- 3 2.0 4.2 18 56
+ 2.07934 3 4 cbr 210 ------- 3 2.0 4.2 18 56
- 2.07993 3 4 cbr 210 ------- 3 2.0 4.2 18 56
r 2.08009 0 3 cbr 210 ------- 1 0.0 4.0 19 57
+ 2.08009 3 4 cbr 210 ------- 1 0.0 4.0 19 57
- 2.08077 3 4 cbr 210 ------- 1 0.0 4.0 19 57
r 2.08118 3 4 cbr 210 ------- 2 1.0 4.1 18 55
r 2.08202 3 4 cbr 210 ------- 3 2.0 4.2 17 53
+ 2.0825 0 3 cbr 210 ------- 1 0.0 4.0 22 66
- 2.0825 0 3 cbr 210 ------- 1 0.0 4.0 22 66
+ 2.0825 1 3 cbr 210 ------- 2 1.0 4.1 22 67
- 2.0825 1 3 cbr 210 ------- 2 1.0 4.1 22 67
+ 2.0825 2 3 cbr 210 ------- 3 2.0 4.2 22 68
- 2.0825 2 3 cbr 210 ------- 3 2.0 4.2 22 68
r 2.08284 1 3 cbr 210 ------- 2 1.0 4.1 20 61
+ 2.08284 3 4 cbr 210 ------- 2 1.0 4.1 20 61
- 2.08284 3 4 cbr 210 ------- 2 1.0 4.1 20 61
r 2.08286 3 4 cbr 210 ------- 1 0.0 4.0 18 54
r 2.08309 2 3 cbr 210 ------- 3 2.0 4.2 19 59
+ 2.08309 3 4 cbr 210 ------- 3 2.0 4.2 19 59
- 2.08368 3 4 cbr 210 ------- 3 2.0 4.2 19 59
r 2.08384 0 3 cbr 210 ------- 1 0.0 4.0 20 60
+ 2.08384 3 4 cbr 210 ------- 1 0.0 4.0 20 60
- 2.08452 3 4 cbr 210 ------- 1 0.0 4.0 20 60
r 2.08493 3 4 cbr 210 ------- 2 1.0 4.1 19 58
r 2.08577 3 4 cbr 210 ------- 3 2.0 4.2 18 56
+ 2.08625 0 3 cbr 210 ------- 1 0.0 4.0 23 69
- 2.08625 0 3 cbr 210 ------- 1 0.0 4.0 23 69
+ 2.08625 1 3 cbr 210 ------- 2 1.0 4.1 23 70
- 2.08625 1 3 cbr 210 ------- 2 1.0 4.1 23 70
+ 2.08625 2 3 cbr 210 ------- 3 2.0 4.2 23 71
- 2.08625 2 3 cbr 210 ------- 3 2.0 4.2 23 71
r 2.08659 1 3 cbr 210 ------- 2 1.0 4.1 21 64
+ 2.08659 3 4 cbr 210 ------- 2 1.0 4.1 21 64
- 2.08659 3 4 cbr 210 ------- 2 1.0 4.1 21 64
r 2.08661 3 4 cbr 210 ------- 1 0.0 4.0 19 57
r 2.08684 2 3 cbr 210 ------- 3 2.0 4.2 20 62
+ 2.08684 3 4 cbr 210 ------- 3 2.0 4.2 20 62
- 2.08743 3 4 cbr 210 ------- 3 2.0 4.2 20 62
r 2.08759 0 3 cbr 210 ------- 1 0.0 4.0 21 63
+ 2.08759 3 4 cbr 210 ------- 1 0.0 4.0 21 63
- 2.08827 3 4 cbr 210 ------- 1 0.0 4.0 21 63
r 2.08868 3 4 cbr 210 ------- 2 1.0 4.1 20 61
r 2.08952 3 4 cbr 210 ------- 3 2.0 4.2 19 59
+ 2.09 0 3 cbr 210 ------- 1 0.0 4.0 24 72
- 2.09 0 3 cbr 210 ------- 1 0.0 4.0 24 72
+ 2.09 1 3 cbr 210 ------- 2 1.0 4.1 24 73
- 2.09 1 3 cbr 210 ------- 2 1.0 4.1 24 73
+ 2.09 2 3 cbr 210 ------- 3 2.0 4.2 24 74
- 2.09 2 3 cbr 210 ------- 3 2.0 4.2 24 74
r 2.09034 1 3 cbr 210 ------- 2 1.0 4.1 22 67
+ 2.09034 3 4 cbr 210 ------- 2 1.0 4.1 22 67
- 2.09034 3 4 cbr 210 ------- 2 1.0 4.1 22 67
r 2.09036 3 4 cbr 210 ------- 1 0.0 4.0 20 60
r 2.09059 2 3 cbr 210 ------- 3 2.0 4.2 21 65
+ 2.09059 3 4 cbr 210 ------- 3 2.0 4.2 21 65
- 2.09118 3 4 cbr 210 ------- 3 2.0 4.2 21 65
r 2.09134 0 3 cbr 210 ------- 1 0.0 4.0 22 66
+ 2.09134 3 4 cbr 210 ------- 1 0.0 4.0 22 66
- 2.09202 3 4 cbr 210 ------- 1 0.0 4.0 22 66
r 2.09243 3 4 cbr 210 ------- 2 1.0 4.1 21 64
r 2.09327 3 4 cbr 210 ------- 3 2.0 4.2 20 62
+ 2.09375 0 3 cbr 210 ------- 1 0.0 4.0 25 75
- 2.09375 0 3 cbr 210 ------- 1 0.0 4.0 25 75
+ 2.09375 1 3 cbr 210 ------- 2 1.0 4.1 25 76
- 2.09375 1 3 cbr 210 ------- 2 1.0 4.1 25 76
+ 2.09375 2 3 cbr 210 ------- 3 2.0 4.2 25 77
- 2.09375 2 3 cbr 210 ------- 3 2.0 4.2 25 77
r 2.09409 1 3 cbr 210 ------- 2 1.0 4.1 23 70
+ 2.09409 3 4 cbr 210 ------- 2 1.0 4.1 23 70
- 2.09409 3 4 cbr 210 ------- 2 1.0 4.1 23 70
r 2.09411 3 4 cbr 210 ------- 1 0.0 4.0 21 63
r 2.09434 2 3 cbr 210 ------- 3 2.0 4.2 22 68
+ 2.09434 3 4 cbr 210 ------- 3 2.0 4.2 22 68
- 2.09493 3 4 cbr 210 ------- 3 2.0 4.2 22 68
r 2.09509 0 3 cbr 210 ------- 1 0.0 4.0 23 69
+ 2.09509 3 4 cbr 210 ------- 1 0.0 4.0 23 69
- 2.09577 3 4 cbr 210 ------- 1 0.0 4.0 23 69
r 2.09618 3 4 cbr 210 ------- 2 1.0 4.1 22 67
r 2.09702 3 4 cbr 210 ------- 3 2.0 4.2 21 65
+ 2.0975 0 3 cbr 210 ------- 1 0.0 4.0 26 78
- 2.0975 0 3 cbr 210 ------- 1 0.0 4.0 26 78
+ 2.0975 1 3 cbr 210 ------- 2 1.0 4.1 26 79
- 2.0975 1 3 cbr 210 ------- 2 1.0 4.1 26 79
+ 2.0975 2 3 cbr 210 ------- 3 2.0 4.2 26 80
- 2.0975 2 3 cbr 210 ------- 3 2.0 4.2 26 80
r 2.09784 1 3 cbr 210 ------- 2 1.0 4.1 24 73
+ 2.09784 3 4 cbr 210 ------- 2 1.0 4.1 24 73
- 2.09784 3 4 cbr 210 ------- 2 1.0 4.1 24 73
r 2.09786 3 4 cbr 210 ------- 1 0.0 4.0 22 66
r 2.09809 2 3 cbr 210 ------- 3 2.0 4.2 23 71
+ 2.09809 3 4 cbr 210 ------- 3 2.0 4.2 23 71
- 2.09868 3 4 cbr 210 ------- 3 2.0 4.2 23 71
r 2.09884 0 3 cbr 210 ------- 1 0.0 4.0 24 72
+ 2.09884 3 4 cbr 210 ------- 1 0.0 4.0 24 72
- 2.09952 3 4 cbr 210 ------- 1 0.0 4.0 24 72
r 2.09993 3 4 cbr 210 ------- 2 1.0 4.1 23 70
r 2.10077 3 4 cbr 210 ------- 3 2.0 4.2 22 68
+ 2.10125 0 3 cbr 210 ------- 1 0.0 4.0 27 81
- 2.10125 0 3 cbr 210 ------- 1 0.0 4.0 27 81
+ 2.10125 1 3 cbr 210 ------- 2 1.0 4.1 27 82
- 2.10125 1 3 cbr 210 ------- 2 1.0 4.1 27 82
+ 2.10125 2 3 cbr 210 ------- 3 2.0 4.2 27 83
- 2.10125 2 3 cbr 210 ------- 3 2.0 4.2 27 83
r 2.10159 1 3 cbr 210 ------- 2 1.0 4.1 25 76
+ 2.10159 3 4 cbr 210 ------- 2 1.0 4.1 25 76
- 2.10159 3 4 cbr 210 ------- 2 1.0 4.1 25 76
r 2.10161 3 4 cbr 210 ------- 1 0.0 4.0 23 69
r 2.10184 2 3 cbr 210 ------- 3 2.0 4.2 24 74
+ 2.10184 3 4 cbr 210 ------- 3 2.0 4.2 24 74
- 2.10243 3 4 cbr 210 ------- 3 2.0 4.2 24 74
r 2.10259 0 3 cbr 210 ------- 1 0.0 4.0 25 75
+ 2.10259 3 4 cbr 210 ------- 1 0.0 4.0 25 75
- 2.10327 3 4 cbr 210 ------- 1 0.0 4.0 25 75
r 2.10368 3 4 cbr 210 ------- 2 1.0 4.1 24 73
r 2.10452 3 4 cbr 210 ------- 3 2.0 4.2 23 71
+ 2.105 0 3 cbr 210 ------- 1 0.0 4.0 28 84
- 2.105 0 3 cbr 210 ------- 1 0.0 4.0 28 84
+ 2.105 1 3 cbr 210 ------- 2 1.0 4.1 28 85
- 2.105 1 3 cbr 210 ------- 2 1.0 4.1 28 85
+ 2.105 2 3 cbr 210 ------- 3 2.0 4.2 28 86
- 2.105 2 3 cbr 210 ------- 3 2.0 4.2 28 86
r 2.10534 1 3 cbr 210 ------- 2 1.0 4.1 26 79
+ 2.10534 3 4 cbr 210 ------- 2 1.0 4.1 26 79
- 2.10534 3 4 cbr 210 ------- 2 1.0 4.1 26 79
r 2.10536 3 4 cbr 210 ------- 1 0.0 4.0 24 72
r 2.10559 2 3 cbr 210 ------- 3 2.0 4.2 25 77
+ 2.10559 3 4 cbr 210 ------- 3 2.0 4.2 25 77
- 2.10618 3 4 cbr 210 ------- 3 2.0 4.2 25 77
r 2.10634 0 3 cbr 210 ------- 1 0.0 4.0 26 78
+ 2.10634 3 4 cbr 210 ------- 1 0.0 4.0 26 78
- 2.10702 3 4 cbr 210 ------- 1 0.0 4.0 26 78
r 2.10743 3 4 cbr 210 ------- 2 1.0 4.1 25 76
r 2.10827 3 4 cbr 210 ------- 3 2.0 4.2 24 74
+ 2.10875 0 3 cbr 210 ------- 1 0.0 4.0 29 87
- 2.10875 0 3 cbr 210 ------- 1 0.0 4.0 29 87
+ 2.10875 1 3 cbr 210 ------- 2 1.0 4.1 29 88
- 2.10875 1 3 cbr 210 ------- 2 1.0 4.1 29 88
+ 2.10875 2 3 cbr 210 ------- 3 2.0 4.2 29 89
- 2.10875 2 3 cbr 210 ------- 3 2.0 4.2 29 89
r 2.10909 1 3 cbr 210 ------- 2 1.0 4.1 27 82
+ 2.10909 3 4 cbr 210 ------- 2 1.0 4.1 27 82
- 2.10909 3 4 cbr 210 ------- 2 1.0 4.1 27 82
r 2.10911 3 4 cbr 210 ------- 1 0.0 4.0 25 75
r 2.10934 2 3 cbr 210 ------- 3 2.0 4.2 26 80
+ 2.10934 3 4 cbr 210 ------- 3 2.0 4.2 26 80
- 2.10993 3 4 cbr 210 ------- 3 2.0 4.2 26 80
r 2.11009 0 3 cbr 210 ------- 1 0.0 4.0 27 81
+ 2.11009 3 4 cbr 210 ------- 1 0.0 4.0 27 81
- 2.11077 3 4 cbr 210 ------- 1 0.0 4.0 27 81
r 2.11118 3 4 cbr 210 ------- 2 1.0 4.1 26 79
r 2.11202 3 4 cbr 210 ------- 3 2.0 4.2 25 77
+ 2.1125 0 3 cbr 210 ------- 1 0.0 4.0 30 90
- 2.1125 0 3 cbr 210 ------- 1 0.0 4.0 30 90
+ 2.1125 1 3 cbr 210 ------- 2 1.0 4.1 30 91
- 2.1125 1 3 cbr 210 ------- 2 1.0 4.1 30 91
+ 2.1125 2 3 cbr 210 ------- 3 2.0 4.2 30 92
- 2.1125 2 3 cbr 210 ------- 3 2.0 4.2 30 92
r 2.11284 1 3 cbr 210 ------- 2 1.0 4.1 28 85
+ 2.11284 3 4 cbr 210 ------- 2 1.0 4.1 28 85
- 2.11284 3 4 cbr 210 ------- 2 1.0 4.1 28 85
r 2.11286 3 4 cbr 210 ------- 1 0.0 4.0 26 78
r 2.11309 2 3 cbr 210 ------- 3 2.0 4.2 27 83
+ 2.11309 3 4 cbr 210 ------- 3 2.0 4.2 27 83
- 2.11368 3 4 cbr 210 ------- 3 2.0 4.2 27 83
r 2.11384 0 3 cbr 210 ------- 1 0.0 4.0 28 84
+ 2.11384 3 4 cbr 210 ------- 1 0.0 4.0 28 84
- 2.11452 3 4 cbr 210 ------- 1 0.0 4.0 28 84
r 2.11493 3 4 cbr 210 ------- 2 1.0 4.1 27 82
r 2.11577 3 4 cbr 210 ------- 3 2.0 4.2 26 80
+ 2.11625 0 3 cbr 210 ------- 1 0.0 4.0 31 93
- 2.11625 0 3 cbr 210 ------- 1 0.0 4.0 31 93
+ 2.11625 1 3 cbr 210 ------- 2 1.0 4.1 31 94
- 2.11625 1 3 cbr 210 ------- 2 1.0 4.1 31 94
+ 2.11625 2 3 cbr 210 ------- 3 2.0 4.2 31 95
- 2.11625 2 3 cbr 210 ------- 3 2.0 4.2 31 95
r 2.11659 1 3 cbr 210 ------- 2 1.0 4.1 29 88
+ 2.11659 3 4 cbr 210 ------- 2 1.0 4.1 29 88
- 2.11659 3 4 cbr 210 ------- 2 1.0 4.1 29 88
r 2.11661 3 4 cbr 210 ------- 1 0.0 4.0 27 81
r 2.11684 2 3 cbr 210 ------- 3 2.0 4.2 28 86
+ 2.11684 3 4 cbr 210 ------- 3 2.0 4.2 28 86
- 2.11743 3 4 cbr 210 ------- 3 2.0 4.2 28 86
r 2.11759 0 3 cbr 210 ------- 1 0.0 4.0 29 87
+ 2.11759 3 4 cbr 210 ------- 1 0.0 4.0 29 87
- 2.11827 3 4 cbr 210 ------- 1 0.0 4.0 29 87
r 2.11868 3 4 cbr 210 ------- 2 1.0 4.1 28 85
r 2.11952 3 4 cbr 210 ------- 3 2.0 4.2 27 83
+ 2.12 0 3 cbr 210 ------- 1 0.0 4.0 32 96
- 2.12 0 3 cbr 210 ------- 1 0.0 4.0 32 96
+ 2.12 1 3 cbr 210 ------- 2 1.0 4.1 32 97
- 2.12 1 3 cbr 210 ------- 2 1.0 4.1 32 97
+ 2.12 2 3 cbr 210 ------- 3 2.0 4.2 32 98
- 2.12 2 3 cbr 210 ------- 3 2.0 4.2 32 98
r 2.12034 1 3 cbr 210 ------- 2 1.0 4.1 30 91
+ 2.12034 3 4 cbr 210 ------- 2 1.0 4.1 30 91
- 2.12034 3 4 cbr 210 ------- 2 1.0 4.1 30 91
r 2.12036 3 4 cbr 210 ------- 1 0.0 4.0 28 84
r 2.12059 2 3 cbr 210 ------- 3 2.0 4.2 29 89
+ 2.12059 3 4 cbr 210 ------- 3 2.0 4.2 29 89
- 2.12118 3 4 cbr 210 ------- 3 2.0 4.2 29 89
r 2.12134 0 3 cbr 210 ------- 1 0.0 4.0 30 90
+ 2.12134 3 4 cbr 210 ------- 1 0.0 4.0 30 90
- 2.12202 3 4 cbr 210 ------- 1 0.0 4.0 30 90
r 2.12243 3 4 cbr 210 ------- 2 1.0 4.1 29 88
r 2.12327 3 4 cbr 210 ------- 3 2.0 4.2 28 86
+ 2.12375 0 3 cbr 210 ------- 1 0.0 4.0 33 99
- 2.12375 0 3 cbr 210 ------- 1 0.0 4.0 33 99
+ 2.12375 1 3 cbr 210 ------- 2 1.0 4.1 33 100
- 2.12375 1 3 cbr 210 ------- 2 1.0 4.1 33 100
+ 2.12375 2 3 cbr 210 ------- 3 2.0 4.2 33 101
- 2.12375 2 3 cbr 210 ------- 3 2.0 4.2 33 101
r 2.12409 1 3 cbr 210 ------- 2 1.0 4.1 31 94
+ 2.12409 3 4 cbr 210 ------- 2 1.0 4.1 31 94
- 2.12409 3 4 cbr 210 ------- 2 1.0 4.1 31 94
r 2.12411 3 4 cbr 210 ------- 1 0.0 4.0 29 87
r 2.12434 2 3 cbr 210 ------- 3 2.0 4.2 30 92
+ 2.12434 3 4 cbr 210 ------- 3 2.0 4.2 30 92
- 2.12493 3 4 cbr 210 ------- 3 2.0 4.2 30 92
r 2.12509 0 3 cbr 210 ------- 1 0.0 4.0 31 93
+ 2.12509 3 4 cbr 210 ------- 1 0.0 4.0 31 93
- 2.12577 3 4 cbr 210 ------- 1 0.0 4.0 31 93
r 2.12618 3 4 cbr 210 ------- 2 1.0 4.1 30 91
r 2.12702 3 4 cbr 210 ------- 3 2.0 4.2 29 89
+ 2.1275 0 3 cbr 210 ------- 1 0.0 4.0 34 102
- 2.1275 0 3 cbr 210 ------- 1 0.0 4.0 34 102
+ 2.1275 1 3 cbr 210 ------- 2 1.0 4.1 34 103
- 2.1275 1 3 cbr 210 ------- 2 1.0 4.1 34 103
+ 2.1275 2 3 cbr 210 ------- 3 2.0 4.2 34 104
- 2.1275 2 3 cbr 210 ------- 3 2.0 4.2 34 104
r 2.12784 1 3 cbr 210 ------- 2 1.0 4.1 32 97
+ 2.12784 3 4 cbr 210 ------- 2 1.0 4.1 32 97
- 2.12784 3 4 cbr 210 ------- 2 1.0 4.1 32 97
r 2.12786 3 4 cbr 210 ------- 1 0.0 4.0 30 90
r 2.12809 2 3 cbr 210 ------- 3 2.0 4.2 31 95
+ 2.12809 3 4 cbr 210 ------- 3 2.0 4.2 31 95
- 2.12868 3 4 cbr 210 ------- 3 2.0 4.2 31 95
r 2.12884 0 3 cbr 210 ------- 1 0.0 4.0 32 96
+ 2.12884 3 4 cbr 210 ------- 1 0.0 4.0 32 96
- 2.12952 3 4 cbr 210 ------- 1 0.0 4.0 32 96
r 2.12993 3 4 cbr 210 ------- 2 1.0 4.1 31 94
r 2.13077 3 4 cbr 210 ------- 3 2.0 4.2 30 92
+ 2.13125 0 3 cbr 210 ------- 1 0.0 4.0 35 105
- 2.13125 0 3 cbr 210 ------- 1 0.0 4.0 35 105
+ 2.13125 1 3 cbr 210 ------- 2 1.0 4.1 35 106
- 2.13125 1 3 cbr 210 ------- 2 1.0 4.1 35 106
+ 2.13125 2 3 cbr 210 ------- 3 2.0 4.2 35 107
- 2.13125 2 3 cbr 210 ------- 3 2.0 4.2 35 107
r 2.13159 1 3 cbr 210 ------- 2 1.0 4.1 33 100
+ 2.13159 3 4 cbr 210 ------- 2 1.0 4.1 33 100
- 2.13159 3 4 cbr 210 ------- 2 1.0 4.1 33 100
r 2.13161 3 4 cbr 210 ------- 1 0.0 4.0 31 93
r 2.13184 2 3 cbr 210 ------- 3 2.0 4.2 32 98
+ 2.13184 3 4 cbr 210 ------- 3 2.0 4.2 32 98
- 2.13243 3 4 cbr 210 ------- 3 2.0 4.2 32 98
r 2.13259 0 3 cbr 210 ------- 1 0.0 4.0 33 99
+ 2.13259 3 4 cbr 210 ------- 1 0.0 4.0 33 99
- 2.13327 3 4 cbr 210 ------- 1 0.0 4.0 33 99
r 2.13368 3 4 cbr 210 ------- 2 1.0 4.1 32 97
r 2.13452 3 4 cbr 210 ------- 3 2.0 4.2 31 95
+ 2.135 0 3 cbr 210 ------- 1 0.0 4.0 36 108
- 2.135 0 3 cbr 210 ------- 1 0.0 4.0 36 108
+ 2.135 1 3 cbr 210 ------- 2 1.0 4.1 36 109
- 2.135 1 3 cbr 210 ------- 2 1.0 4.1 36 109
+ 2.135 2 3 cbr 210 ------- 3 2.0 4.2 36 110
- 2.135 2 3 cbr 210 ------- 3 2.0 4.2 36 110
r 2.13534 1 3 cbr 210 ------- 2 1.0 4.1 34 103
+ 2.13534 3 4 cbr 210 ------- 2 1.0 4.1 34 103
- 2.13534 3 4 cbr 210 ------- 2 1.0 4.1 34 103
r 2.13536 3 4 cbr 210 ------- 1 0.0 4.0 32 96
r 2.13559 2 3 cbr 210 ------- 3 2.0 4.2 33 101
+ 2.13559 3 4 cbr 210 ------- 3 2.0 4.2 33 101
- 2.13618 3 4 cbr 210 ------- 3 2.0 4.2 33 101
r 2.13634 0 3 cbr 210 ------- 1 0.0 4.0 34 102
+ 2.13634 3 4 cbr 210 ------- 1 0.0 4.0 34 102
- 2.13702 3 4 cbr 210 ------- 1 0.0 4.0 34 102
r 2.13743 3 4 cbr 210 ------- 2 1.0 4.1 33 100
r 2.13827 3 4 cbr 210 ------- 3 2.0 4.2 32 98
+ 2.13875 0 3 cbr 210 ------- 1 0.0 4.0 37 111
- 2.13875 0 3 cbr 210 ------- 1 0.0 4.0 37 111
+ 2.13875 1 3 cbr 210 ------- 2 1.0 4.1 37 112
- 2.13875 1 3 cbr 210 ------- 2 1.0 4.1 37 112
+ 2.13875 2 3 cbr 210 ------- 3 2.0 4.2 37 113
- 2.13875 2 3 cbr 210 ------- 3 2.0 4.2 37 113
r 2.13909 1 3 cbr 210 ------- 2 1.0 4.1 35 106
+ 2.13909 3 4 cbr 210 ------- 2 1.0 4.1 35 106
- 2.13909 3 4 cbr 210 ------- 2 1.0 4.1 35 106
r 2.13911 3 4 cbr 210 ------- 1 0.0 4.0 33 99
r 2.13934 2 3 cbr 210 ------- 3 2.0 4.2 34 104
+ 2.13934 3 4 cbr 210 ------- 3 2.0 4.2 34 104
- 2.13993 3 4 cbr 210 ------- 3 2.0 4.2 34 104
r 2.14009 0 3 cbr 210 ------- 1 0.0 4.0 35 105
+ 2.14009 3 4 cbr 210 ------- 1 0.0 4.0 35 105
- 2.14077 3 4 cbr 210 ------- 1 0.0 4.0 35 105
r 2.14118 3 4 cbr 210 ------- 2 1.0 4.1 34 103
r 2.14202 3 4 cbr 210 ------- 3 2.0 4.2 33 101
+ 2.1425 0 3 cbr 210 ------- 1 0.0 4.0 38 114
- 2.1425 0 3 cbr 210 ------- 1 0.0 4.0 38 114
+ 2.1425 1 3 cbr 210 ------- 2 1.0 4.1 38 115
- 2.1425 1 3 cbr 210 ------- 2 1.0 4.1 38 115
+ 2.1425 2 3 cbr 210 ------- 3 2.0 4.2 38 116
- 2.1425 2 3 cbr 210 ------- 3 2.0 4.2 38 116
r 2.14284 1 3 cbr 210 ------- 2 1.0 4.1 36 109
+ 2.14284 3 4 cbr 210 ------- 2 1.0 4.1 36 109
- 2.14284 3 4 cbr 210 ------- 2 1.0 4.1 36 109